nqpoint: 303    
npath: 3      
segment_nqpoint:
- 101
- 101
- 101
reciprocal_lattice:
- [   0.23474178,   0.00000000,   0.00000000 ] # a*
- [   0.00000000,   0.40658470,   0.00000000 ] # b*
- [   0.00000000,   0.00000000,   0.10000000 ] # c*
natom: 4      
lattice:
- [     4.260000000000000,     0.000000000000000,     0.000000000000000 ] # a
- [     0.000000000000000,     2.459512146747810,     0.000000000000000 ] # b
- [     0.000000000000000,     0.000000000000000,    10.000000000000000 ] # c
points:
- symbol: C # 1
  coordinates: [  0.000000000000000,  0.000000000000000,  0.000000000000000 ]
  mass: 12.010700
- symbol: C # 2
  coordinates: [  0.333300000000000,  0.000000000000000,  0.000000000000000 ]
  mass: 12.010700
- symbol: C # 3
  coordinates: [  0.500000000000000,  0.500000000000000,  0.000000000000000 ]
  mass: 12.010700
- symbol: C # 4
  coordinates: [  0.833300000000000,  0.500000000000000,  0.000000000000000 ]
  mass: 12.010700

phonon:
- q-position: [    0.0000000,    0.0000000,    0.0000000 ]
  distance:    0.0000000
  band:
  - # 1
    frequency:   -0.0011558111
    eigenvector:
    - # atom 1
      - [ -0.00000009229301,  0.00000000000000 ]
      - [  0.00000008461281,  0.00000000000000 ]
      - [ -0.49999999999998,  0.00000000000000 ]
    - # atom 2
      - [ -0.00000009229301,  0.00000000000000 ]
      - [  0.00000008461281,  0.00000000000000 ]
      - [ -0.49999999999998,  0.00000000000000 ]
    - # atom 3
      - [ -0.00000009229301,  0.00000000000000 ]
      - [  0.00000008461281,  0.00000000000000 ]
      - [ -0.49999999999998,  0.00000000000000 ]
    - # atom 4
      - [ -0.00000009229301,  0.00000000000000 ]
      - [  0.00000008461281,  0.00000000000000 ]
      - [ -0.49999999999998,  0.00000000000000 ]
  - # 2
    frequency:   -0.0008854256
    eigenvector:
    - # atom 1
      - [  0.49999999999997,  0.00000000000000 ]
      - [  0.00000013638548,  0.00000000000000 ]
      - [ -0.00000009229299,  0.00000000000000 ]
    - # atom 2
      - [  0.49999999999997,  0.00000000000000 ]
      - [  0.00000013638548,  0.00000000000000 ]
      - [ -0.00000009229299,  0.00000000000000 ]
    - # atom 3
      - [  0.49999999999997,  0.00000000000000 ]
      - [  0.00000013638548,  0.00000000000000 ]
      - [ -0.00000009229299,  0.00000000000000 ]
    - # atom 4
      - [  0.49999999999997,  0.00000000000000 ]
      - [  0.00000013638548,  0.00000000000000 ]
      - [ -0.00000009229299,  0.00000000000000 ]
  - # 3
    frequency:   -0.0008239814
    eigenvector:
    - # atom 1
      - [  0.00000013638547,  0.00000000000000 ]
      - [ -0.49999999999997,  0.00000000000000 ]
      - [ -0.00000008461284,  0.00000000000000 ]
    - # atom 2
      - [  0.00000013638547,  0.00000000000000 ]
      - [ -0.49999999999997,  0.00000000000000 ]
      - [ -0.00000008461284,  0.00000000000000 ]
    - # atom 3
      - [  0.00000013638547,  0.00000000000000 ]
      - [ -0.49999999999997,  0.00000000000000 ]
      - [ -0.00000008461284,  0.00000000000000 ]
    - # atom 4
      - [  0.00000013638547,  0.00000000000000 ]
      - [ -0.49999999999997,  0.00000000000000 ]
      - [ -0.00000008461283,  0.00000000000000 ]
  - # 4
    frequency:   12.5624046365
    eigenvector:
    - # atom 1
      - [ -0.00000000000000,  0.00000000000000 ]
      - [  0.00000000000000,  0.00000000000000 ]
      - [  0.50000000000000,  0.00000000000000 ]
    - # atom 2
      - [ -0.00000000000000,  0.00000000000000 ]
      - [  0.00000000000000,  0.00000000000000 ]
      - [ -0.50000000000000,  0.00000000000000 ]
    - # atom 3
      - [ -0.00000000000000,  0.00000000000000 ]
      - [  0.00000000000000,  0.00000000000000 ]
      - [ -0.50000000000000,  0.00000000000000 ]
    - # atom 4
      - [ -0.00000000000000,  0.00000000000000 ]
      - [  0.00000000000000,  0.00000000000000 ]
      - [  0.50000000000000,  0.00000000000000 ]
  - # 5
    frequency:   24.1220283734
    eigenvector:
    - # atom 1
      - [ -0.00000000000000,  0.00000000000000 ]
      - [  0.50000000000000,  0.00000000000000 ]
      - [ -0.00000000000000,  0.00000000000000 ]
    - # atom 2
      - [  0.00000000000000,  0.00000000000000 ]
      - [ -0.50000000000000,  0.00000000000000 ]
      - [ -0.00000000000000,  0.00000000000000 ]
    - # atom 3
      - [  0.00000000000000,  0.00000000000000 ]
      - [ -0.50000000000000,  0.00000000000000 ]
      - [  0.00000000000000,  0.00000000000000 ]
    - # atom 4
      - [  0.00000000000000,  0.00000000000000 ]
      - [  0.50000000000000,  0.00000000000000 ]
      - [  0.00000000000000,  0.00000000000000 ]
  - # 6
    frequency:   26.0496922749
    eigenvector:
    - # atom 1
      - [  0.00000000000000,  0.00000000000000 ]
      - [ -0.00000000000000,  0.00000000000000 ]
      - [ -0.50000000000000,  0.00000000000000 ]
    - # atom 2
      - [  0.00000000000000,  0.00000000000000 ]
      - [  0.00000000000000,  0.00000000000000 ]
      - [ -0.50000000000000,  0.00000000000000 ]
    - # atom 3
      - [ -0.00000000000000,  0.00000000000000 ]
      - [  0.00000000000000,  0.00000000000000 ]
      - [  0.50000000000000,  0.00000000000000 ]
    - # atom 4
      - [  0.00000000000000,  0.00000000000000 ]
      - [ -0.00000000000000,  0.00000000000000 ]
      - [  0.50000000000000,  0.00000000000000 ]
  - # 7
    frequency:   39.5200321540
    eigenvector:
    - # atom 1
      - [ -0.00000000000000,  0.00000000000000 ]
      - [  0.00000000000000,  0.00000000000000 ]
      - [  0.50000000000000,  0.00000000000000 ]
    - # atom 2
      - [ -0.00000000000000,  0.00000000000000 ]
      - [ -0.00000000000000,  0.00000000000000 ]
      - [ -0.50000000000000,  0.00000000000000 ]
    - # atom 3
      - [  0.00000000000000,  0.00000000000000 ]
      - [ -0.00000000000000,  0.00000000000000 ]
      - [  0.50000000000000,  0.00000000000000 ]
    - # atom 4
      - [ -0.00000000000000,  0.00000000000000 ]
      - [  0.00000000000000,  0.00000000000000 ]
      - [ -0.50000000000000,  0.00000000000000 ]
  - # 8
    frequency:   42.7351479023
    eigenvector:
    - # atom 1
      - [  0.49999999999999,  0.00000000000000 ]
      - [  0.00000000000000,  0.00000000000000 ]
      - [  0.00000000000000,  0.00000000000000 ]
    - # atom 2
      - [  0.50000000000001,  0.00000000000000 ]
      - [ -0.00000000000000,  0.00000000000000 ]
      - [ -0.00000000000000,  0.00000000000000 ]
    - # atom 3
      - [ -0.49999999999999,  0.00000000000000 ]
      - [ -0.00000000000000,  0.00000000000000 ]
      - [  0.00000000000000,  0.00000000000000 ]
    - # atom 4
      - [ -0.50000000000001,  0.00000000000000 ]
      - [  0.00000000000000,  0.00000000000000 ]
      - [ -0.00000000000000,  0.00000000000000 ]
  - # 9
    frequency:   43.0997461785
    eigenvector:
    - # atom 1
      - [  0.50000000000001, -0.00000000000000 ]
      - [ -0.00000000000000,  0.00000000000000 ]
      - [  0.00000000000000,  0.00000000000000 ]
    - # atom 2
      - [ -0.49999999999999,  0.00000000000000 ]
      - [ -0.00000000000000,  0.00000000000000 ]
      - [ -0.00000000000000,  0.00000000000000 ]
    - # atom 3
      - [ -0.50000000000001,  0.00000000000000 ]
      - [  0.00000000000000,  0.00000000000000 ]
      - [  0.00000000000000,  0.00000000000000 ]
    - # atom 4
      - [  0.49999999999999,  0.00000000000000 ]
      - [  0.00000000000000,  0.00000000000000 ]
      - [ -0.00000000000000,  0.00000000000000 ]
  - # 10
    frequency:   49.9602915038
    eigenvector:
    - # atom 1
      - [ -0.00000000000000,  0.00000000000000 ]
      - [ -0.50000000000000,  0.00000000000000 ]
      - [ -0.00000000000000,  0.00000000000000 ]
    - # atom 2
      - [  0.00000000000000,  0.00000000000000 ]
      - [ -0.50000000000000,  0.00000000000000 ]
      - [  0.00000000000000,  0.00000000000000 ]
    - # atom 3
      - [  0.00000000000000,  0.00000000000000 ]
      - [  0.50000000000000,  0.00000000000000 ]
      - [ -0.00000000000000,  0.00000000000000 ]
    - # atom 4
      - [ -0.00000000000000,  0.00000000000000 ]
      - [  0.50000000000000,  0.00000000000000 ]
      - [ -0.00000000000000,  0.00000000000000 ]
  - # 11
    frequency:   53.1906653950
    eigenvector:
    - # atom 1
      - [  0.00000000000025,  0.00000000000000 ]
      - [  0.50000000000000,  0.00000000000000 ]
      - [ -0.00000000000000,  0.00000000000000 ]
    - # atom 2
      - [ -0.00000000000025,  0.00000000000000 ]
      - [ -0.50000000000000,  0.00000000000000 ]
      - [  0.00000000000000,  0.00000000000000 ]
    - # atom 3
      - [  0.00000000000025,  0.00000000000000 ]
      - [  0.50000000000000,  0.00000000000000 ]
      - [ -0.00000000000000,  0.00000000000000 ]
    - # atom 4
      - [ -0.00000000000025,  0.00000000000000 ]
      - [ -0.50000000000000,  0.00000000000000 ]
      - [  0.00000000000000,  0.00000000000000 ]
  - # 12
    frequency:   53.1915337794
    eigenvector:
    - # atom 1
      - [ -0.50000000000000,  0.00000000000000 ]
      - [  0.00000000000025,  0.00000000000000 ]
      - [  0.00000000000000,  0.00000000000000 ]
    - # atom 2
      - [  0.50000000000000,  0.00000000000000 ]
      - [ -0.00000000000025,  0.00000000000000 ]
      - [ -0.00000000000000,  0.00000000000000 ]
    - # atom 3
      - [ -0.50000000000000,  0.00000000000000 ]
      - [  0.00000000000025,  0.00000000000000 ]
      - [  0.00000000000000,  0.00000000000000 ]
    - # atom 4
      - [  0.50000000000000,  0.00000000000000 ]
      - [ -0.00000000000025,  0.00000000000000 ]
      - [ -0.00000000000000,  0.00000000000000 ]

- q-position: [    0.0050000,    0.0000000,    0.0000000 ]
  distance:    0.0011737
  band:
  - # 1
    frequency:   -0.0311088484
    eigenvector:
    - # atom 1
      - [  0.00000000000022,  0.00000000000000 ]
      - [ -0.00000000000316, -0.00000000000008 ]
      - [  0.49999761956256, -0.00154286479353 ]
    - # atom 2
      - [  0.00000000000022, -0.00000000000000 ]
      - [ -0.00000000000316, -0.00000000000009 ]
      - [  0.49999762250401, -0.00154191126091 ]
    - # atom 3
      - [  0.00000000000022, -0.00000000000000 ]
      - [ -0.00000000000316, -0.00000000000008 ]
      - [  0.49999761956256, -0.00154286479353 ]
    - # atom 4
      - [  0.00000000000022, -0.00000000000000 ]
      - [ -0.00000000000316, -0.00000000000009 ]
      - [  0.49999762250401, -0.00154191126091 ]
  - # 2
    frequency:    0.2645393347
    eigenvector:
    - # atom 1
      - [  0.50000000000000,  0.00000000000000 ]
      - [ -0.00000000000037, -0.00000000000001 ]
      - [ -0.00000000000022,  0.00000000000000 ]
    - # atom 2
      - [  0.49999817233888, -0.00135190893817 ]
      - [ -0.00000000000037, -0.00000000000001 ]
      - [ -0.00000000000022,  0.00000000000000 ]
    - # atom 3
      - [  0.50000000000000,  0.00000000000000 ]
      - [ -0.00000000000037, -0.00000000000001 ]
      - [ -0.00000000000022,  0.00000000000000 ]
    - # atom 4
      - [  0.49999817233888, -0.00135190893817 ]
      - [ -0.00000000000037, -0.00000000000001 ]
      - [ -0.00000000000022,  0.00000000000000 ]
  - # 3
    frequency:    0.1769954893
    eigenvector:
    - # atom 1
      - [  0.00000000000037,  0.00000000000000 ]
      - [  0.49994279448989,  0.00756321609107 ]
      - [  0.00000000000316, -0.00000000000004 ]
    - # atom 2
      - [  0.00000000000037, -0.00000000000000 ]
      - [  0.49992057995961,  0.00891143831552 ]
      - [  0.00000000000316, -0.00000000000004 ]
    - # atom 3
      - [  0.00000000000037,  0.00000000000000 ]
      - [  0.49994279448989,  0.00756321609107 ]
      - [  0.00000000000316, -0.00000000000004 ]
    - # atom 4
      - [  0.00000000000037, -0.00000000000000 ]
      - [  0.49992057995961,  0.00891143831552 ]
      - [  0.00000000000316, -0.00000000000004 ]
  - # 4
    frequency:   12.5607400222
    eigenvector:
    - # atom 1
      - [ -0.00000000000000,  0.00000000000000 ]
      - [ -0.00000000000000, -0.00000000000000 ]
      - [  0.49991006812478, -0.00948281537722 ]
    - # atom 2
      - [ -0.00000000000000, -0.00000000000000 ]
      - [  0.00000000000000, -0.00000000000000 ]
      - [ -0.49999903263068, -0.00098354887064 ]
    - # atom 3
      - [ -0.00000000000000,  0.00000000000000 ]
      - [  0.00000000000000, -0.00000000000000 ]
      - [ -0.49991006812478,  0.00948281537722 ]
    - # atom 4
      - [ -0.00000000000000,  0.00000000000000 ]
      - [  0.00000000000000, -0.00000000000000 ]
      - [  0.49999903263068,  0.00098354887064 ]
  - # 5
    frequency:   24.1211445678
    eigenvector:
    - # atom 1
      - [ -0.00000000000000,  0.00000000000000 ]
      - [  0.49997263275709,  0.00523129945079 ]
      - [  0.00000000000000,  0.00000000000000 ]
    - # atom 2
      - [ -0.00000000000000, -0.00000000000000 ]
      - [ -0.49990538613810, -0.00972650554526 ]
      - [  0.00000000000000,  0.00000000000000 ]
    - # atom 3
      - [ -0.00000000000000,  0.00000000000000 ]
      - [ -0.49997263275709, -0.00523129945079 ]
      - [ -0.00000000000000, -0.00000000000000 ]
    - # atom 4
      - [ -0.00000000000000,  0.00000000000000 ]
      - [  0.49990538613810,  0.00972650554526 ]
      - [ -0.00000000000000, -0.00000000000000 ]
  - # 6
    frequency:   26.0513538070
    eigenvector:
    - # atom 1
      - [ -0.00000000000000,  0.00000000000000 ]
      - [  0.00000000000000, -0.00000000000000 ]
      - [ -0.49998089482322,  0.00437090514373 ]
    - # atom 2
      - [ -0.00000000000000,  0.00000000000000 ]
      - [ -0.00000000000000,  0.00000000000000 ]
      - [ -0.49996283957781, -0.00609582162543 ]
    - # atom 3
      - [ -0.00000000000000, -0.00000000000000 ]
      - [ -0.00000000000000,  0.00000000000000 ]
      - [  0.49998089482322, -0.00437090514373 ]
    - # atom 4
      - [ -0.00000000000000, -0.00000000000000 ]
      - [  0.00000000000000,  0.00000000000000 ]
      - [  0.49996283957781,  0.00609582162543 ]
  - # 7
    frequency:   39.5194782391
    eigenvector:
    - # atom 1
      - [ -0.00000000000000,  0.00000000000000 ]
      - [  0.00000000000000,  0.00000000000000 ]
      - [ -0.49850633015630, -0.03861915061334 ]
    - # atom 2
      - [  0.00000000000000,  0.00000000000000 ]
      - [ -0.00000000000000, -0.00000000000000 ]
      - [  0.49850625650581,  0.03862010130188 ]
    - # atom 3
      - [ -0.00000000000000, -0.00000000000000 ]
      - [ -0.00000000000000, -0.00000000000000 ]
      - [ -0.49850633015630, -0.03861915061334 ]
    - # atom 4
      - [  0.00000000000000, -0.00000000000000 ]
      - [  0.00000000000000,  0.00000000000000 ]
      - [  0.49850625650581,  0.03862010130188 ]
  - # 8
    frequency:   42.6933659973
    eigenvector:
    - # atom 1
      - [  0.50000000000001,  0.00000000000000 ]
      - [ -0.00000000000000,  0.00000000000000 ]
      - [ -0.00000000000000, -0.00000000000000 ]
    - # atom 2
      - [  0.40691756566531, -0.29054792161192 ]
      - [ -0.00000000000000,  0.00000000000000 ]
      - [ -0.00000000000000,  0.00000000000000 ]
    - # atom 3
      - [ -0.50000000000001, -0.00000000000000 ]
      - [  0.00000000000000,  0.00000000000000 ]
      - [  0.00000000000000, -0.00000000000000 ]
    - # atom 4
      - [ -0.40691756566531,  0.29054792161192 ]
      - [  0.00000000000000, -0.00000000000000 ]
      - [  0.00000000000000, -0.00000000000000 ]
  - # 9
    frequency:   43.1405235843
    eigenvector:
    - # atom 1
      - [  0.49999999999999, -0.00000000000000 ]
      - [  0.00000000000000, -0.00000000000000 ]
      - [  0.00000000000000,  0.00000000000000 ]
    - # atom 2
      - [ -0.40691756566533,  0.29054792161193 ]
      - [ -0.00000000000000, -0.00000000000000 ]
      - [ -0.00000000000000, -0.00000000000000 ]
    - # atom 3
      - [ -0.49999999999999,  0.00000000000000 ]
      - [  0.00000000000000, -0.00000000000000 ]
      - [  0.00000000000000,  0.00000000000000 ]
    - # atom 4
      - [  0.40691756566533, -0.29054792161193 ]
      - [ -0.00000000000000,  0.00000000000000 ]
      - [ -0.00000000000000,  0.00000000000000 ]
  - # 10
    frequency:   49.9605647158
    eigenvector:
    - # atom 1
      - [  0.00000000000000,  0.00000000000000 ]
      - [ -0.47746677829854,  0.14840982319649 ]
      - [ -0.00000000000000,  0.00000000000000 ]
    - # atom 2
      - [ -0.00000000000000,  0.00000000000000 ]
      - [ -0.47878187904231,  0.14411076400019 ]
      - [  0.00000000000000, -0.00000000000000 ]
    - # atom 3
      - [  0.00000000000000, -0.00000000000000 ]
      - [  0.47746677829854, -0.14840982319649 ]
      - [  0.00000000000000, -0.00000000000000 ]
    - # atom 4
      - [  0.00000000000000,  0.00000000000000 ]
      - [  0.47878187904231, -0.14411076400019 ]
      - [  0.00000000000000, -0.00000000000000 ]
  - # 11
    frequency:   53.1905150864
    eigenvector:
    - # atom 1
      - [  0.00000000000022,  0.00000000000000 ]
      - [ -0.49984155395610,  0.01258653799719 ]
      - [  0.00000000000000, -0.00000000000000 ]
    - # atom 2
      - [ -0.00000000000022,  0.00000000000000 ]
      - [  0.49987367981197, -0.01123851552659 ]
      - [  0.00000000000000,  0.00000000000000 ]
    - # atom 3
      - [  0.00000000000022, -0.00000000000000 ]
      - [ -0.49984155395610,  0.01258653799719 ]
      - [ -0.00000000000000,  0.00000000000000 ]
    - # atom 4
      - [ -0.00000000000022,  0.00000000000000 ]
      - [  0.49987367981197, -0.01123851552659 ]
      - [ -0.00000000000000,  0.00000000000000 ]
  - # 12
    frequency:   53.1913714344
    eigenvector:
    - # atom 1
      - [ -0.50000000000000,  0.00000000000000 ]
      - [ -0.00000000000022,  0.00000000000001 ]
      - [  0.00000000000000,  0.00000000000000 ]
    - # atom 2
      - [  0.49999817233888, -0.00135190893817 ]
      - [  0.00000000000022, -0.00000000000000 ]
      - [ -0.00000000000000,  0.00000000000000 ]
    - # atom 3
      - [ -0.50000000000000,  0.00000000000000 ]
      - [ -0.00000000000022,  0.00000000000001 ]
      - [  0.00000000000000, -0.00000000000000 ]
    - # atom 4
      - [  0.49999817233888, -0.00135190893817 ]
      - [  0.00000000000022, -0.00000000000000 ]
      - [ -0.00000000000000,  0.00000000000000 ]

- q-position: [    0.0100000,    0.0000000,    0.0000000 ]
  distance:    0.0023474
  band:
  - # 1
    frequency:   -0.0621552457
    eigenvector:
    - # atom 1
      - [  0.00000000000009,  0.00000000000000 ]
      - [ -0.00000000000011,  0.00000000000001 ]
      - [ -0.49999572174360, -0.00206839021833 ]
    - # atom 2
      - [  0.00000000000009, -0.00000000000000 ]
      - [ -0.00000000000011,  0.00000000000001 ]
      - [ -0.49999571325623, -0.00207044086986 ]
    - # atom 3
      - [  0.00000000000009,  0.00000000000000 ]
      - [ -0.00000000000011,  0.00000000000001 ]
      - [ -0.49999572174360, -0.00206839021833 ]
    - # atom 4
      - [  0.00000000000009, -0.00000000000000 ]
      - [ -0.00000000000011,  0.00000000000001 ]
      - [ -0.49999571325623, -0.00207044086986 ]
  - # 2
    frequency:    0.5290722026
    eigenvector:
    - # atom 1
      - [ -0.50000000000000,  0.00000000000000 ]
      - [ -0.00000000000047, -0.00000000000000 ]
      - [ -0.00000000000009, -0.00000000000000 ]
    - # atom 2
      - [ -0.49999268933991,  0.00270381335167 ]
      - [ -0.00000000000047, -0.00000000000001 ]
      - [ -0.00000000000009, -0.00000000000000 ]
    - # atom 3
      - [ -0.50000000000000,  0.00000000000000 ]
      - [ -0.00000000000047, -0.00000000000000 ]
      - [ -0.00000000000009, -0.00000000000000 ]
    - # atom 4
      - [ -0.49999268933991,  0.00270381335167 ]
      - [ -0.00000000000047, -0.00000000000001 ]
      - [ -0.00000000000009, -0.00000000000000 ]
  - # 3
    frequency:    0.3539862905
    eigenvector:
    - # atom 1
      - [  0.00000000000047,  0.00000000000000 ]
      - [ -0.49998320760804, -0.00409781770897 ]
      - [  0.00000000000011,  0.00000000000001 ]
    - # atom 2
      - [  0.00000000000047, -0.00000000000000 ]
      - [ -0.49995383068869, -0.00679464345695 ]
      - [  0.00000000000011,  0.00000000000001 ]
    - # atom 3
      - [  0.00000000000047, -0.00000000000000 ]
      - [ -0.49998320760804, -0.00409781770897 ]
      - [  0.00000000000010,  0.00000000000001 ]
    - # atom 4
      - [  0.00000000000047, -0.00000000000000 ]
      - [ -0.49995383068869, -0.00679464345695 ]
      - [  0.00000000000011,  0.00000000000001 ]
  - # 4
    frequency:   12.5557490430
    eigenvector:
    - # atom 1
      - [ -0.00000000000000,  0.00000000000000 ]
      - [ -0.00000000000000, -0.00000000000000 ]
      - [ -0.49999096024666, -0.00300660466741 ]
    - # atom 2
      - [ -0.00000000000000,  0.00000000000000 ]
      - [  0.00000000000000,  0.00000000000000 ]
      - [  0.49942751741308,  0.02391975858180 ]
    - # atom 3
      - [ -0.00000000000000,  0.00000000000000 ]
      - [  0.00000000000000, -0.00000000000000 ]
      - [  0.49999096024666,  0.00300660466741 ]
    - # atom 4
      - [ -0.00000000000000, -0.00000000000000 ]
      - [ -0.00000000000000, -0.00000000000000 ]
      - [ -0.49942751741308, -0.02391975858180 ]
  - # 5
    frequency:   24.1184933336
    eigenvector:
    - # atom 1
      - [  0.00000000000000,  0.00000000000000 ]
      - [  0.49999608412920,  0.00197885205756 ]
      - [ -0.00000000000000,  0.00000000000000 ]
    - # atom 2
      - [  0.00000000000000, -0.00000000000000 ]
      - [ -0.49987967582739, -0.01096857760635 ]
      - [ -0.00000000000000,  0.00000000000000 ]
    - # atom 3
      - [  0.00000000000000,  0.00000000000000 ]
      - [ -0.49999608412920, -0.00197885205756 ]
      - [  0.00000000000000, -0.00000000000000 ]
    - # atom 4
      - [  0.00000000000000,  0.00000000000000 ]
      - [  0.49987967582739,  0.01096857760635 ]
      - [  0.00000000000000, -0.00000000000000 ]
  - # 6
    frequency:   26.0563355379
    eigenvector:
    - # atom 1
      - [ -0.00000000000000,  0.00000000000000 ]
      - [ -0.00000000000000, -0.00000000000000 ]
      - [ -0.49999726729985,  0.00165308580505 ]
    - # atom 2
      - [  0.00000000000000, -0.00000000000000 ]
      - [  0.00000000000000,  0.00000000000000 ]
      - [ -0.49962874464479, -0.01926441083117 ]
    - # atom 3
      - [  0.00000000000000,  0.00000000000000 ]
      - [  0.00000000000000,  0.00000000000000 ]
      - [  0.49999726729985, -0.00165308580505 ]
    - # atom 4
      - [  0.00000000000000,  0.00000000000000 ]
      - [ -0.00000000000000, -0.00000000000000 ]
      - [  0.49962874464479,  0.01926441083117 ]
  - # 7
    frequency:   39.5178165400
    eigenvector:
    - # atom 1
      - [ -0.00000000000000,  0.00000000000000 ]
      - [ -0.00000000000000, -0.00000000000000 ]
      - [ -0.49999009939909, -0.00314650645706 ]
    - # atom 2
      - [  0.00000000000000,  0.00000000000000 ]
      - [ -0.00000000000000,  0.00000000000000 ]
      - [  0.49999008649000,  0.00314855708552 ]
    - # atom 3
      - [  0.00000000000000, -0.00000000000000 ]
      - [  0.00000000000000, -0.00000000000000 ]
      - [ -0.49999009939909, -0.00314650645706 ]
    - # atom 4
      - [ -0.00000000000000, -0.00000000000000 ]
      - [  0.00000000000000,  0.00000000000000 ]
      - [  0.49999008649000,  0.00314855708552 ]
  - # 8
    frequency:   42.5988128206
    eigenvector:
    - # atom 1
      - [  0.50000000000000,  0.00000000000000 ]
      - [ -0.00000000000000, -0.00000000000000 ]
      - [ -0.00000000000000, -0.00000000000000 ]
    - # atom 2
      - [  0.28571266609838, -0.41032703107516 ]
      - [ -0.00000000000000, -0.00000000000000 ]
      - [  0.00000000000000,  0.00000000000000 ]
    - # atom 3
      - [ -0.50000000000000, -0.00000000000000 ]
      - [  0.00000000000000,  0.00000000000000 ]
      - [ -0.00000000000000, -0.00000000000000 ]
    - # atom 4
      - [ -0.28571266609838,  0.41032703107516 ]
      - [ -0.00000000000000, -0.00000000000000 ]
      - [  0.00000000000000, -0.00000000000000 ]
  - # 9
    frequency:   43.2320633308
    eigenvector:
    - # atom 1
      - [  0.50000000000000, -0.00000000000000 ]
      - [  0.00000000000000,  0.00000000000000 ]
      - [ -0.00000000000000,  0.00000000000000 ]
    - # atom 2
      - [ -0.28571266609838,  0.41032703107516 ]
      - [ -0.00000000000000,  0.00000000000000 ]
      - [  0.00000000000000, -0.00000000000000 ]
    - # atom 3
      - [ -0.50000000000000,  0.00000000000000 ]
      - [  0.00000000000000, -0.00000000000000 ]
      - [ -0.00000000000000,  0.00000000000000 ]
    - # atom 4
      - [  0.28571266609838, -0.41032703107516 ]
      - [  0.00000000000000,  0.00000000000000 ]
      - [  0.00000000000000,  0.00000000000000 ]
  - # 10
    frequency:   49.9613841987
    eigenvector:
    - # atom 1
      - [  0.00000000000000,  0.00000000000000 ]
      - [  0.49999982807980,  0.00041463256730 ]
      - [ -0.00000000000000, -0.00000000000000 ]
    - # atom 2
      - [ -0.00000000000000, -0.00000000000000 ]
      - [  0.49991154420163,  0.00940467830089 ]
      - [  0.00000000000000, -0.00000000000000 ]
    - # atom 3
      - [  0.00000000000000, -0.00000000000000 ]
      - [ -0.49999982807980, -0.00041463256730 ]
      - [ -0.00000000000000, -0.00000000000000 ]
    - # atom 4
      - [ -0.00000000000000,  0.00000000000000 ]
      - [ -0.49991154420163, -0.00940467830089 ]
      - [  0.00000000000000,  0.00000000000000 ]
  - # 11
    frequency:   53.1900641728
    eigenvector:
    - # atom 1
      - [  0.00000000000072,  0.00000000000000 ]
      - [  0.49999793379182, -0.00143742962078 ]
      - [  0.00000000000000,  0.00000000000000 ]
    - # atom 2
      - [ -0.00000000000072,  0.00000000000000 ]
      - [ -0.49999841351596, -0.00125955608335 ]
      - [ -0.00000000000000, -0.00000000000000 ]
    - # atom 3
      - [  0.00000000000072,  0.00000000000000 ]
      - [  0.49999793379182, -0.00143742962078 ]
      - [  0.00000000000000,  0.00000000000000 ]
    - # atom 4
      - [ -0.00000000000072,  0.00000000000000 ]
      - [ -0.49999841351596, -0.00125955608335 ]
      - [ -0.00000000000000,  0.00000000000000 ]
  - # 12
    frequency:   53.1908843606
    eigenvector:
    - # atom 1
      - [ -0.50000000000000,  0.00000000000000 ]
      - [  0.00000000000072, -0.00000000000000 ]
      - [  0.00000000000000,  0.00000000000000 ]
    - # atom 2
      - [  0.49999268933991, -0.00270381335167 ]
      - [ -0.00000000000072, -0.00000000000000 ]
      - [ -0.00000000000000, -0.00000000000000 ]
    - # atom 3
      - [ -0.50000000000000,  0.00000000000000 ]
      - [  0.00000000000072, -0.00000000000000 ]
      - [  0.00000000000000, -0.00000000000000 ]
    - # atom 4
      - [  0.49999268933991, -0.00270381335167 ]
      - [ -0.00000000000072, -0.00000000000000 ]
      - [ -0.00000000000000,  0.00000000000000 ]

- q-position: [    0.0150000,    0.0000000,    0.0000000 ]
  distance:    0.0035211
  band:
  - # 1
    frequency:   -0.0931482753
    eigenvector:
    - # atom 1
      - [  0.00000000000004,  0.00000000000000 ]
      - [ -0.00000000000009,  0.00000000000002 ]
      - [ -0.49999590032626, -0.00202476095577 ]
    - # atom 2
      - [  0.00000000000004, -0.00000000000000 ]
      - [ -0.00000000000009,  0.00000000000002 ]
      - [ -0.49999588640416, -0.00202819597724 ]
    - # atom 3
      - [  0.00000000000004,  0.00000000000000 ]
      - [ -0.00000000000009,  0.00000000000002 ]
      - [ -0.49999590032626, -0.00202476095577 ]
    - # atom 4
      - [  0.00000000000004, -0.00000000000000 ]
      - [ -0.00000000000009,  0.00000000000002 ]
      - [ -0.49999588640416, -0.00202819597724 ]
  - # 2
    frequency:    0.7935871984
    eigenvector:
    - # atom 1
      - [  0.50000000000000,  0.00000000000000 ]
      - [ -0.00000000000014,  0.00000000000001 ]
      - [  0.00000000000004,  0.00000000000000 ]
    - # atom 2
      - [  0.49998355095622, -0.00405570871814 ]
      - [ -0.00000000000014,  0.00000000000000 ]
      - [  0.00000000000004,  0.00000000000000 ]
    - # atom 3
      - [  0.50000000000000,  0.00000000000000 ]
      - [ -0.00000000000014,  0.00000000000001 ]
      - [  0.00000000000004,  0.00000000000000 ]
    - # atom 4
      - [  0.49998355095622, -0.00405570871814 ]
      - [ -0.00000000000014,  0.00000000000000 ]
      - [  0.00000000000004,  0.00000000000000 ]
  - # 3
    frequency:    0.5309613223
    eigenvector:
    - # atom 1
      - [ -0.00000000000014,  0.00000000000000 ]
      - [ -0.49959342687585,  0.02015955908369 ]
      - [  0.00000000000009,  0.00000000000001 ]
    - # atom 2
      - [ -0.00000000000014,  0.00000000000000 ]
      - [ -0.49974019720896,  0.01611630520775 ]
      - [  0.00000000000009,  0.00000000000001 ]
    - # atom 3
      - [ -0.00000000000014, -0.00000000000000 ]
      - [ -0.49959342687585,  0.02015955908369 ]
      - [  0.00000000000009,  0.00000000000001 ]
    - # atom 4
      - [ -0.00000000000014,  0.00000000000000 ]
      - [ -0.49974019720896,  0.01611630520775 ]
      - [  0.00000000000009,  0.00000000000001 ]
  - # 4
    frequency:   12.5474402693
    eigenvector:
    - # atom 1
      - [  0.00000000000000,  0.00000000000000 ]
      - [  0.00000000000000,  0.00000000000000 ]
      - [  0.49995628311139,  0.00661173029102 ]
    - # atom 2
      - [  0.00000000000000, -0.00000000000000 ]
      - [  0.00000000000000, -0.00000000000000 ]
      - [ -0.49855924468364, -0.03792992934979 ]
    - # atom 3
      - [  0.00000000000000, -0.00000000000000 ]
      - [  0.00000000000000, -0.00000000000000 ]
      - [ -0.49995628311139, -0.00661173029102 ]
    - # atom 4
      - [  0.00000000000000,  0.00000000000000 ]
      - [  0.00000000000000,  0.00000000000000 ]
      - [  0.49855924468364,  0.03792992934979 ]
  - # 5
    frequency:   24.1140752184
    eigenvector:
    - # atom 1
      - [ -0.00000000000000,  0.00000000000000 ]
      - [  0.49887653524012, -0.03349929233303 ]
      - [ -0.00000000000000,  0.00000000000000 ]
    - # atom 2
      - [ -0.00000000000000,  0.00000000000000 ]
      - [ -0.49959842716068,  0.02003525838556 ]
      - [ -0.00000000000000, -0.00000000000000 ]
    - # atom 3
      - [ -0.00000000000000,  0.00000000000000 ]
      - [ -0.49887653524012,  0.03349929233303 ]