32   
2    

1    
  0.0083690609491228   0.0024159397959202   0.0049114207447904
  -0.6797549797   -0.1907370156   -0.1228160031
  -0.0098714797   -0.0000000156   -0.0000000031
  -0.0098714797   -0.0000000156   -0.0000000031
  -0.0098714797   -0.0000000156   -0.0000000031
  -0.0118621797    0.0172039844   -0.0218680031
  -0.0098714797   -0.0000000156   -0.0000000031
  -0.0098714797   -0.0000000156   -0.0000000031
  -0.0098714797   -0.0000000156   -0.0000000031
   0.3119660203    0.0282592844    0.0624042969
   0.0098715203   -0.0000000156   -0.0000000031
   0.0098715203   -0.0000000156   -0.0000000031
   0.0098715203   -0.0000000156   -0.0000000031
   0.0098715203   -0.0000000156   -0.0000000031
   0.0098715203   -0.0000000156   -0.0000000031
   0.0098715203   -0.0000000156   -0.0000000031
   0.0098715203   -0.0000000156   -0.0000000031
   0.0238698203   -0.0109562156   -0.0111367031
  -0.0098714797   -0.0000000156   -0.0000000031
  -0.0098714797   -0.0000000156   -0.0000000031
   0.0156031203   -0.0379243156   -0.0108132031
   0.0006640923    0.0145578844   -0.0110852031
  -0.0098714797   -0.0000000156   -0.0000000031
  -0.0098714797   -0.0000000156   -0.0000000031
   0.0082871003    0.0412062844   -0.0107577031
   0.0098715203   -0.0000000156   -0.0000000031
   0.0098715203   -0.0000000156   -0.0000000031
   0.0098715203   -0.0000000156   -0.0000000031
   0.1271600203   -0.0152945156    0.0629364969
   0.0098715203   -0.0000000156   -0.0000000031
   0.0098715203   -0.0000000156   -0.0000000031
   0.0098715203   -0.0000000156   -0.0000000031
   0.1744520203    0.1536849844    0.0631360969

1    
 -0.0083690609491228  -0.0024159397959202  -0.0049114207447904
   0.6543480403    0.1942959781    0.1228190156
  -0.0098714597   -0.0000000219    0.0000000156
  -0.0098714597   -0.0000000219    0.0000000156
  -0.0098714597   -0.0000000219    0.0000000156
  -0.0064847497   -0.0171327219    0.0218984156
  -0.0098714597   -0.0000000219    0.0000000156
  -0.0098714597   -0.0000000219    0.0000000156
  -0.0098714597   -0.0000000219    0.0000000156
  -0.2764189597   -0.0260665219   -0.0632201844
   0.0098715403   -0.0000000219    0.0000000156
   0.0098715403   -0.0000000219    0.0000000156
   0.0098715403   -0.0000000219    0.0000000156
   0.0098715403   -0.0000000219    0.0000000156
   0.0098715403   -0.0000000219    0.0000000156
   0.0098715403   -0.0000000219    0.0000000156
   0.0098715403   -0.0000000219    0.0000000156
  -0.0429495597    0.0107264781    0.0107547156
  -0.0098714597   -0.0000000219    0.0000000156
  -0.0098714597   -0.0000000219    0.0000000156
  -0.0356558597    0.0376312781    0.0110720156
  -0.0203894597   -0.0145017219    0.0108038156
  -0.0098714597   -0.0000000219    0.0000000156
  -0.0098714597   -0.0000000219    0.0000000156
  -0.0283259597   -0.0417382219    0.0111320156
   0.0098715403   -0.0000000219    0.0000000156
   0.0098715403   -0.0000000219    0.0000000156
   0.0098715403   -0.0000000219    0.0000000156
  -0.1105649597    0.0169059781   -0.0627339844
   0.0098715403   -0.0000000219    0.0000000156
   0.0098715403   -0.0000000219    0.0000000156
   0.0098715403   -0.0000000219    0.0000000156
  -0.1631739597   -0.1601200219   -0.0625261844
