ITEM: TIMESTEP
0
ITEM: NUMBER OF ATOMS
32
ITEM: BOX BOUNDS pp pp pp
0.0000000000000000e+00 1.7039999999999999e+01
0.0000000000000000e+00 4.9190242934956201e+00
0.0000000000000000e+00 1.0000000000000000e+01
ITEM: ATOMS id type x y z fx fy fz
1 1 0.00836906 0.00241594 0.00491142 -0.679755 -0.190737 -0.122816
9 1 1.41986 0 0 0.311966 0.0282593 0.0624043
17 1 2.13 1.22976 0 0.0238698 -0.0109562 -0.0111367
25 1 3.54986 1.22976 0 0.0098715 2.55351e-15 0
2 1 4.26 0 0 -0.0098715 -4.08562e-14 0
10 1 5.67986 0 0 0.0098715 0 0
18 1 6.39 1.22976 0 -0.0098715 -3.55271e-15 0
26 1 7.80986 1.22976 0 0.0098715 0 0
3 1 8.52 0 0 -0.0098715 0 0
11 1 9.93986 0 0 0.0098715 -8.88178e-15 0
19 1 10.65 1.22976 0 -0.0098715 -9.99201e-16 0
27 1 12.0699 1.22976 0 0.0098715 -9.99201e-16 0
4 1 12.78 0 0 -0.0098715 -3.55271e-15 0
12 1 14.1999 0 0 0.0098715 -5.32907e-15 0
20 1 14.91 1.22976 0 0.0156031 -0.0379243 -0.0108132
28 1 16.3299 1.22976 0 0.12716 -0.0152945 0.0629365
5 1 0 2.45951 0 -0.0118622 0.017204 -0.021868
13 1 1.41986 2.45951 0 0.0098715 -3.37508e-14 0
21 1 2.13 3.68927 0 0.000664072 0.0145579 -0.0110852
29 1 3.54986 3.68927 0 0.0098715 3.73035e-14 0
6 1 4.26 2.45951 0 -0.0098715 1.9984e-15 0
14 1 5.67986 2.45951 0 0.0098715 -4.01901e-14 0
22 1 6.39 3.68927 0 -0.0098715 3.73035e-14 0
30 1 7.80986 3.68927 0 0.0098715 4.08562e-14 0
7 1 8.52 2.45951 0 -0.0098715 -4.44089e-14 0
15 1 9.93986 2.45951 0 0.0098715 -1.22125e-15 0
23 1 10.65 3.68927 0 -0.0098715 1.59872e-14 0
31 1 12.0699 3.68927 0 0.0098715 -3.55271e-14 0
8 1 12.78 2.45951 0 -0.0098715 5.12923e-14 0
16 1 14.1999 2.45951 0 0.0098715 -2.83107e-14 0
24 1 14.91 3.68927 0 0.00828708 0.0412063 -0.0107577
32 1 16.3299 3.68927 0 0.174452 0.153685 0.0631361
