phonopy:
  version: "2.31.0"
  frequency_unit_conversion_factor: 15.633302
  symmetry_tolerance: 1.00000e-05
  configuration:
    atom_name: "C"
    band: "0 0 0  0.5 0 0  0.5 0.5 0  0 0 0"
    band_points: "101"
    band_connection: ".TRUE."
    cell_filename: "graphene.data"

physical_unit:
  atomic_mass: "AMU"
  length: "angstrom"
  force: "eV/angstrom"
  force_constants: "eV/angstrom^2"

space_group:
  type: "Cmmm"
  number: 65
  Hall_symbol: "-C 2 2"

supercell_matrix:
- [   2,   0,   0 ]
- [   0,   4,   0 ]
- [   0,   0,   1 ]

primitive_cell:
  lattice:
  - [     4.260000000000000,     0.000000000000000,     0.000000000000000 ] # a
  - [     0.000000000000000,     2.459512146747810,     0.000000000000000 ] # b
  - [     0.000000000000000,     0.000000000000000,    10.000000000000000 ] # c
  points:
  - symbol: C # 1
    coordinates: [  0.000000000000000,  0.000000000000000,  0.000000000000000 ]
    mass: 12.010700
  - symbol: C # 2
    coordinates: [  0.333300000000000,  0.000000000000000,  0.000000000000000 ]
    mass: 12.010700
  - symbol: C # 3
    coordinates: [  0.500000000000000,  0.500000000000000,  0.000000000000000 ]
    mass: 12.010700
  - symbol: C # 4
    coordinates: [  0.833300000000000,  0.500000000000000,  0.000000000000000 ]
    mass: 12.010700
  reciprocal_lattice: # without 2pi
  - [     0.234741784037559,     0.000000000000000,     0.000000000000000 ] # a*
  - [     0.000000000000000,     0.406584696612412,     0.000000000000000 ] # b*
  - [     0.000000000000000,     0.000000000000000,     0.100000000000000 ] # c*

unit_cell:
  lattice:
  - [     4.260000000000000,     0.000000000000000,     0.000000000000000 ] # a
  - [     0.000000000000000,     2.459512146747810,     0.000000000000000 ] # b
  - [     0.000000000000000,     0.000000000000000,    10.000000000000000 ] # c
  points:
  - symbol: C # 1
    coordinates: [  0.000000000000000,  0.000000000000000,  0.000000000000000 ]
    mass: 12.010700
    reduced_to: 1
  - symbol: C # 2
    coordinates: [  0.333300000000000,  0.000000000000000,  0.000000000000000 ]
    mass: 12.010700
    reduced_to: 2
  - symbol: C # 3
    coordinates: [  0.500000000000000,  0.500000000000000,  0.000000000000000 ]
    mass: 12.010700
    reduced_to: 3
  - symbol: C # 4
    coordinates: [  0.833300000000000,  0.500000000000000,  0.000000000000000 ]
    mass: 12.010700
    reduced_to: 4

supercell:
  lattice:
  - [     8.520000000000000,     0.000000000000000,     0.000000000000000 ] # a
  - [     0.000000000000000,     9.838048586991240,     0.000000000000000 ] # b
  - [     0.000000000000000,     0.000000000000000,    10.000000000000000 ] # c
  points:
  - symbol: C # 1
    coordinates: [  0.000000000000000,  0.000000000000000,  0.000000000000000 ]
    mass: 12.010700
    reduced_to: 1
  - symbol: C # 2
    coordinates: [  0.500000000000000,  0.000000000000000,  0.000000000000000 ]
    mass: 12.010700
    reduced_to: 1
  - symbol: C # 3
    coordinates: [  0.000000000000000,  0.250000000000000,  0.000000000000000 ]
    mass: 12.010700
    reduced_to: 1
  - symbol: C # 4
    coordinates: [  0.500000000000000,  0.250000000000000,  0.000000000000000 ]
    mass: 12.010700
    reduced_to: 1
  - symbol: C # 5
    coordinates: [  0.000000000000000,  0.500000000000000,  0.000000000000000 ]
    mass: 12.010700
    reduced_to: 1
  - symbol: C # 6
    coordinates: [  0.500000000000000,  0.500000000000000,  0.000000000000000 ]
    mass: 12.010700
    reduced_to: 1
  - symbol: C # 7
    coordinates: [  0.000000000000000,  0.750000000000000,  0.000000000000000 ]
    mass: 12.010700
    reduced_to: 1
  - symbol: C # 8
    coordinates: [  0.500000000000000,  0.750000000000000,  0.000000000000000 ]
    mass: 12.010700
    reduced_to: 1
  - symbol: C # 9
    coordinates: [  0.166650000000000,  0.000000000000000,  0.000000000000000 ]
    mass: 12.010700
    reduced_to: 9
  - symbol: C # 10
    coordinates: [  0.666650000000000,  0.000000000000000,  0.000000000000000 ]
    mass: 12.010700
    reduced_to: 9
  - symbol: C # 11
    coordinates: [  0.166650000000000,  0.250000000000000,  0.000000000000000 ]
    mass: 12.010700
    reduced_to: 9
  - symbol: C # 12
    coordinates: [  0.666650000000000,  0.250000000000000,  0.000000000000000 ]
    mass: 12.010700
    reduced_to: 9
  - symbol: C # 13
    coordinates: [  0.166650000000000,  0.500000000000000,  0.000000000000000 ]
    mass: 12.010700
    reduced_to: 9
  - symbol: C # 14
    coordinates: [  0.666650000000000,  0.500000000000000,  0.000000000000000 ]
    mass: 12.010700
    reduced_to: 9
  - symbol: C # 15
    coordinates: [  0.166650000000000,  0.750000000000000,  0.000000000000000 ]
    mass: 12.010700
    reduced_to: 9
  - symbol: C # 16
    coordinates: [  0.666650000000000,  0.750000000000000,  0.000000000000000 ]
    mass: 12.010700
    reduced_to: 9
  - symbol: C # 17
    coordinates: [  0.250000000000000,  0.125000000000000,  0.000000000000000 ]
    mass: 12.010700
    reduced_to: 17
  - symbol: C # 18
    coordinates: [  0.750000000000000,  0.125000000000000,  0.000000000000000 ]
    mass: 12.010700
    reduced_to: 17
  - symbol: C # 19
    coordinates: [  0.250000000000000,  0.375000000000000,  0.000000000000000 ]
    mass: 12.010700
    reduced_to: 17
  - symbol: C # 20
    coordinates: [  0.750000000000000,  0.375000000000000,  0.000000000000000 ]
    mass: 12.010700
    reduced_to: 17
  - symbol: C # 21
    coordinates: [  0.250000000000000,  0.625000000000000,  0.000000000000000 ]
    mass: 12.010700
    reduced_to: 17
  - symbol: C # 22
    coordinates: [  0.750000000000000,  0.625000000000000,  0.000000000000000 ]
    mass: 12.010700
    reduced_to: 17
  - symbol: C # 23
    coordinates: [  0.250000000000000,  0.875000000000000,  0.000000000000000 ]
    mass: 12.010700
    reduced_to: 17
  - symbol: C # 24
    coordinates: [  0.750000000000000,  0.875000000000000,  0.000000000000000 ]
    mass: 12.010700
    reduced_to: 17
  - symbol: C # 25
    coordinates: [  0.416650000000000,  0.125000000000000,  0.000000000000000 ]
    mass: 12.010700
    reduced_to: 25
  - symbol: C # 26
    coordinates: [  0.916650000000000,  0.125000000000000,  0.000000000000000 ]
    mass: 12.010700
    reduced_to: 25
  - symbol: C # 27
    coordinates: [  0.416650000000000,  0.375000000000000,  0.000000000000000 ]
    mass: 12.010700
    reduced_to: 25
  - symbol: C # 28
    coordinates: [  0.916650000000000,  0.375000000000000,  0.000000000000000 ]
    mass: 12.010700
    reduced_to: 25
  - symbol: C # 29
    coordinates: [  0.416650000000000,  0.625000000000000,  0.000000000000000 ]
    mass: 12.010700
    reduced_to: 25
  - symbol: C # 30
    coordinates: [  0.916650000000000,  0.625000000000000,  0.000000000000000 ]
    mass: 12.010700
    reduced_to: 25
  - symbol: C # 31
    coordinates: [  0.416650000000000,  0.875000000000000,  0.000000000000000 ]
    mass: 12.010700
    reduced_to: 25
  - symbol: C # 32
    coordinates: [  0.916650000000000,  0.875000000000000,  0.000000000000000 ]
    mass: 12.010700
    reduced_to: 25
