#

32 atoms
1 atom types

0.0 17.04 xlo xhi
0.0 4.91902429349562 ylo yhi
0.0 10.0 zlo zhi

3.012033677978741e-16 6.123233995736766e-16 1.1102230246251565e-15 xy xz yz


Atom Type Labels

1 H


Atoms

1 H 0.008369060949122778 0.0024159397959202153 0.004911420744790363
2 H 4.26 0.0 0.0
3 H 8.52 0.0 0.0
4 H 12.78 0.0 0.0
5 H 1.5060168389893705e-16 2.45951214674781 0.0
6 H 4.26 2.45951214674781 0.0
7 H 8.52 2.45951214674781 0.0
8 H 12.78 2.45951214674781 0.0
9 H 1.4198579999999998 0.0 0.0
10 H 5.679857999999999 0.0 0.0
11 H 9.939858 0.0 0.0
12 H 14.199857999999999 0.0 0.0
13 H 1.419858 2.45951214674781 0.0
14 H 5.679857999999999 2.45951214674781 0.0
15 H 9.939858 2.45951214674781 0.0
16 H 14.199857999999999 2.45951214674781 0.0
17 H 2.13 1.229756073373905 0.0
18 H 6.39 1.229756073373905 0.0
19 H 10.649999999999997 1.229756073373905 0.0
20 H 14.91 1.229756073373905 0.0
21 H 2.1300000000000003 3.689268220121715 0.0
22 H 6.39 3.689268220121715 0.0
23 H 10.649999999999997 3.689268220121715 0.0
24 H 14.91 3.689268220121715 0.0
25 H 3.549858 1.229756073373905 0.0
26 H 7.809857999999999 1.229756073373905 0.0
27 H 12.069858 1.229756073373905 0.0
28 H 16.329857999999998 1.229756073373905 0.0
29 H 3.5498580000000004 3.689268220121715 0.0
30 H 7.809857999999999 3.689268220121715 0.0
31 H 12.069858 3.689268220121715 0.0
32 H 16.329857999999998 3.689268220121715 0.0