ITEM: TIMESTEP
300
ITEM: NUMBER OF ATOMS
252
ITEM: BOX BOUNDS pp pp pp
0.0000000000000000e+00 2.5559999999999999e+01
0.0000000000000000e+00 6.8159999999999997e+01
0.0000000000000000e+00 2.8399999999999999e+00
ITEM: ATOMS id type x y z
1 1 8.41017 67.9759 0
2 1 9.72459 0.404275 0
3 1 10.3698 1.63535 0
4 1 11.8257 1.59923 0
5 1 12.5683 0.366571 0
6 1 14.0006 0.356125 0
7 1 14.7294 1.56946 0
8 1 16.1923 1.55803 0
9 1 16.6794 0.341788 0
10 1 8.30389 2.88739 0
11 1 9.6534 2.85736 0
12 1 10.4235 4.06106 0
13 1 11.857 4.03742 0
14 1 12.5739 2.80969 0
15 1 14.0088 2.7915 0
16 1 14.7503 4.00024 0
17 1 16.2139 3.9849 0
18 1 16.6965 2.76703 0
19 1 8.35468 5.31797 0
20 1 9.70499 5.29375 0
21 1 10.4673 6.49903 0
22 1 11.8978 6.47537 0
23 1 12.6071 5.2453 0
24 1 14.0399 5.22594 0
25 1 14.7862 6.43154 0
26 1 16.2494 6.41269 0
27 1 16.7247 5.1914 0
28 1 8.39752 7.75403 0
29 1 9.74769 7.73011 0
30 1 10.5104 8.93494 0
31 1 11.9409 8.91088 0
32 1 12.6489 7.68098 0
33 1 14.0808 7.65949 0
34 1 14.8295 8.86328 0
35 1 16.2929 8.8417 0
36 1 16.7645 7.61806 0
37 1 8.44161 10.191 0
38 1 9.79166 10.1658 0
39 1 10.5559 11.3692 0
40 1 11.9863 11.3448 0
41 1 12.6936 10.115 0
42 1 14.1256 10.0922 0
43 1 14.8754 11.2953 0
44 1 16.3391 11.2723 0
45 1 16.8094 10.0473 0
46 1 8.48747 12.6254 0
47 1 9.83743 12.5995 0
48 1 10.6025 13.8018 0
49 1 12.0327 13.7774 0
50 1 12.74 12.548 0
51 1 14.1721 12.5246 0
52 1 14.9221 13.7278 0
53 1 16.386 13.7045 0
54 1 16.8558 12.4786 0
55 1 8.53354 15.0565 0
56 1 9.88342 15.031 0
57 1 10.6484 16.2325 0
58 1 12.0785 16.2089 0
59 1 12.7865 14.9802 0
60 1 14.2187 14.9572 0
61 1 14.968 16.1609 0
62 1 16.4322 16.1383 0
63 1 16.9021 14.9118 0
64 1 8.57813 17.4844 0
65 1 9.92795 17.4601 0
66 1 10.692 18.6614 0
67 1 12.122 18.6395 0
68 1 12.8316 17.4119 0
69 1 14.2637 17.39 0
70 1 15.0117 18.5947 0
71 1 16.476 18.5736 0
72 1 16.9469 17.3468 0
73 1 8.61968 19.9093 0
74 1 9.96945 19.8872 0
75 1 10.7319 21.0888 0
76 1 12.1617 21.0692 0
77 1 12.8735 19.8431 0
78 1 14.3057 19.8231 0
79 1 15.0516 21.0291 0
80 1 16.5161 21.0103 0
81 1 16.9888 19.7836 0
82 1 8.65674 22.3315 0
83 1 10.0065 22.3122 0
84 1 10.7666 23.5147 0
85 1 12.1963 23.4981 0
86 1 12.911 22.2738 0
87 1 14.3432 22.2564 0
88 1 15.0863 23.4642 0
89 1 16.551 23.4483 0
90 1 17.0261 22.2221 0
91 1 8.68804 24.7513 0
92 1 10.0378 24.7356 0
93 1 10.7949 25.9393 0
94 1 12.2245 25.9264 0
95 1 12.9427 24.7042 0
96 1 14.3749 24.69 0
97 1 15.1147 25.8999 0
98 1 16.5795 25.8875 0
99 1 17.0577 24.662 0
100 1 8.71251 27.1692 0
101 1 10.0622 27.1576 0
102 1 10.8158 28.3631 0
103 1 12.2454 28.3542 0
104 1 12.9675 27.1344 0
105 1 14.3997 27.1238 0
106 1 15.1357 28.336 0
107 1 16.6006 28.3275 0
108 1 17.0825 27.1031 0
109 1 8.7293 29.5857 0
110 1 10.079 29.5785 0
111 1 10.8287 30.7862 0
112 1 12.2582 30.7817 0
113 1 12.9845 29.5643 0
114 1 14.4168 29.5578 0
115 1 15.1486 30.7724 0
116 1 16.6136 30.7681 0
117 1 17.0994 29.5451 0
118 1 8.73784 32.0013 0
119 1 10.0876 31.9989 0
120 1 10.833 33.209 0
121 1 12.2625 33.209 0
122 1 12.9932 31.9941 0
123 1 14.4255 31.9919 0
124 1 15.153 33.209 0
125 1 16.618 33.209 0
126 1 17.1081 31.9876 0
127 1 8.73784 34.4167 0
128 1 10.0876 34.4191 0
129 1 10.8287 35.6318 0
130 1 12.2582 35.6364 0
131 1 12.9932 34.4239 0
132 1 14.4255 34.4261 0
133 1 15.1486 35.6456 0
134 1 16.6136 35.65 0
135 1 17.1081 34.4304 0
136 1 8.7293 36.8323 0
137 1 10.079 36.8395 0
138 1 10.8158 38.0549 0
139 1 12.2454 38.0638 0
140 1 12.9845 36.8537 0
141 1 14.4168 36.8602 0
142 1 15.1357 38.082 0
143 1 16.6006 38.0906 0
144 1 17.0994 36.873 0
145 1 8.71251 39.2488 0
146 1 10.0622 39.2605 0
147 1 10.7949 40.4787 0
148 1 12.2245 40.4917 0
149 1 12.9675 39.2837 0
150 1 14.3997 39.2942 0
151 1 15.1147 40.5181 0
152 1 16.5795 40.5306 0
153 1 17.0825 39.315 0
154 1 8.68804 41.6667 0
155 1 10.0378 41.6825 0
156 1 10.7666 42.9034 0
157 1 12.1963 42.92 0
158 1 12.9427 41.7138 0
159 1 14.3749 41.728 0
160 1 15.0863 42.9538 0
161 1 16.551 42.9697 0
162 1 17.0577 41.7561 0
163 1 8.65674 44.0865 0
164 1 10.0065 44.1058 0
165 1 10.7319 45.3293 0
166 1 12.1617 45.3489 0
167 1 12.911 44.1442 0
168 1 14.3432 44.1616 0
169 1 15.0516 45.3889 0
170 1 16.5161 45.4077 0
171 1 17.0261 44.196 0
172 1 8.61968 46.5087 0
173 1 9.96945 46.5309 0
174 1 10.692 47.7566 0
175 1 12.122 47.7786 0
176 1 12.8735 46.575 0
177 1 14.3057 46.5949 0
178 1 15.0117 47.8234 0
179 1 16.476 47.8445 0
180 1 16.9888 46.6344 0
181 1 8.57813 48.9336 0
182 1 9.92795 48.9579 0
183 1 10.6484 50.1855 0
184 1 12.0785 50.2091 0
185 1 12.8316 49.0061 0
186 1 14.2637 49.028 0
187 1 14.968 50.2572 0
188 1 16.4322 50.2798 0
189 1 16.9469 49.0712 0
190 1 8.53354 51.3615 0
191 1 9.88342 51.3871 0
192 1 10.6025 52.6163 0
193 1 12.0327 52.6406 0
194 1 12.7865 51.4378 0
195 1 14.2186 51.4608 0
196 1 14.9221 52.6903 0
197 1 16.386 52.7135 0
198 1 16.9021 51.5063 0
199 1 8.48747 53.7927 0
200 1 9.83743 53.8185 0
201 1 10.5559 55.0488 0
202 1 11.9863 55.0733 0
203 1 12.74 53.8701 0
204 1 14.1721 53.8934 0
205 1 14.8754 55.1228 0
206 1 16.3391 55.1458 0
207 1 16.8558 53.9394 0
208 1 8.44161 56.227 0
209 1 9.79166 56.2522 0
210 1 10.5104 57.4831 0
211 1 11.9409 57.5072 0
212 1 12.6936 56.303 0
213 1 14.1256 56.3259 0
214 1 14.8294 57.5548 0
215 1 16.2929 57.5763 0
216 1 16.8094 56.3707 0
217 1 8.39752 58.664 0
218 1 9.74769 58.6879 0
219 1 10.4673 59.919 0
220 1 11.8978 59.9427 0
221 1 12.6489 58.7371 0
222 1 14.0808 58.7586 0
223 1 14.7862 59.9865 0
224 1 16.2494 60.0053 0
225 1 16.7645 58.8 0
226 1 8.35468 61.1001 0
227 1 9.70499 61.1243 0
228 1 10.4235 62.357 0
229 1 11.857 62.3806 0
230 1 12.6071 61.1727 0
231 1 14.0399 61.1921 0
232 1 14.7503 62.4178 0
233 1 16.2139 62.4331 0
234 1 16.7247 61.2266 0
235 1 8.30389 63.5307 0
236 1 9.6534 63.5607 0
237 1 10.3698 64.7827 0
238 1 11.8257 64.8188 0
239 1 12.5739 63.6083 0
240 1 14.0088 63.6265 0
241 1 14.7294 64.8486 0
242 1 16.1923 64.86 0
243 1 16.6965 63.651 0
244 1 8.41017 66.6021 0
245 1 9.72459 66.0138 0
246 1 10.4742 67.289 0
247 1 11.8778 67.289 0
248 1 12.5683 66.0515 0
249 1 14.0006 66.0619 0
250 1 14.7188 67.289 0
251 1 16.1834 67.289 0
252 1 16.6794 66.0763 0
