ITEM: TIMESTEP
200
ITEM: NUMBER OF ATOMS
360
ITEM: BOX BOUNDS pp pp pp
-8.4533068015906321e-02 1.2864533068015906e+01
-4.8805189574410929e-01 7.4273416298178390e+01
0.0000000000000000e+00 1.0000000000000000e+01
ITEM: ATOMS id type x y z
1 1 12.8645 74.2734 0
2 1 1.35418 74.2734 0
3 1 2.07357 0.757973 0
4 1 3.51236 0.757973 0
5 1 4.23175 74.2734 0
6 1 5.67054 74.2734 0
7 1 6.38993 0.757973 0
8 1 7.82871 0.757973 0
9 1 8.54811 74.2734 0
10 1 9.98689 74.2734 0
11 1 10.7063 0.757973 0
12 1 12.1451 0.757973 0
13 1 12.8645 2.004 0
14 1 1.35418 2.004 0
15 1 2.07357 3.25002 0
16 1 3.51236 3.25002 0
17 1 4.23175 2.004 0
18 1 5.67054 2.004 0
19 1 6.38993 3.25002 0
20 1 7.82871 3.25002 0
21 1 8.54811 2.004 0
22 1 9.98689 2.004 0
23 1 10.7063 3.25002 0
24 1 12.1451 3.25002 0
25 1 12.8645 4.49605 0
26 1 1.35418 4.49605 0
27 1 2.07357 5.74207 0
28 1 3.51236 5.74207 0
29 1 4.23175 4.49605 0
30 1 5.67054 4.49605 0
31 1 6.38993 5.74207 0
32 1 7.82871 5.74207 0
33 1 8.54811 4.49605 0
34 1 9.98689 4.49605 0
35 1 10.7063 5.74207 0
36 1 12.1451 5.74207 0
37 1 12.8645 6.98809 0
38 1 1.35418 6.98809 0
39 1 2.07357 8.23412 0
40 1 3.51236 8.23412 0
41 1 4.23175 6.98809 0
42 1 5.67054 6.98809 0
43 1 6.38993 8.23412 0
44 1 7.82871 8.23412 0
45 1 8.54811 6.98809 0
46 1 9.98689 6.98809 0
47 1 10.7063 8.23412 0
48 1 12.1451 8.23412 0
49 1 12.8645 9.48014 0
50 1 1.35418 9.48014 0
51 1 2.07357 10.7262 0
52 1 3.51236 10.7262 0
53 1 4.23175 9.48014 0
54 1 5.67054 9.48014 0
55 1 6.38993 10.7262 0
56 1 7.82871 10.7262 0
57 1 8.54811 9.48014 0
58 1 9.98689 9.48014 0
59 1 10.7063 10.7262 0
60 1 12.1451 10.7262 0
61 1 12.8645 11.9722 0
62 1 1.35418 11.9722 0
63 1 2.07357 13.2182 0
64 1 3.51236 13.2182 0
65 1 4.23175 11.9722 0
66 1 5.67054 11.9722 0
67 1 6.38993 13.2182 0
68 1 7.82871 13.2182 0
69 1 8.54811 11.9722 0
70 1 9.98689 11.9722 0
71 1 10.7063 13.2182 0
72 1 12.1451 13.2182 0
73 1 12.8645 14.4642 0
74 1 1.35418 14.4642 0
75 1 2.07357 15.7103 0
76 1 3.51236 15.7103 0
77 1 4.23175 14.4642 0
78 1 5.67054 14.4642 0
79 1 6.38993 15.7103 0
80 1 7.82871 15.7103 0
81 1 8.54811 14.4642 0
82 1 9.98689 14.4642 0
83 1 10.7063 15.7103 0
84 1 12.1451 15.7103 0
85 1 12.8645 16.9563 0
86 1 1.35418 16.9563 0
87 1 2.07357 18.2023 0
88 1 3.51236 18.2023 0
89 1 4.23175 16.9563 0
90 1 5.67054 16.9563 0
91 1 6.38993 18.2023 0
92 1 7.82871 18.2023 0
93 1 8.54811 16.9563 0
94 1 9.98689 16.9563 0
95 1 10.7063 18.2023 0
96 1 12.1451 18.2023 0
97 1 12.8645 19.4483 0
98 1 1.35418 19.4483 0
99 1 2.07357 20.6944 0
100 1 3.51236 20.6944 0
101 1 4.23175 19.4483 0
102 1 5.67054 19.4483 0
103 1 6.38993 20.6944 0
104 1 7.82871 20.6944 0
105 1 8.54811 19.4483 0
106 1 9.98689 19.4483 0
107 1 10.7063 20.6944 0
108 1 12.1451 20.6944 0
109 1 12.8645 21.9404 0
110 1 1.35418 21.9404 0
111 1 2.07357 23.1864 0
112 1 3.51236 23.1864 0
113 1 4.23175 21.9404 0
114 1 5.67054 21.9404 0
115 1 6.38993 23.1864 0
116 1 7.82871 23.1864 0
117 1 8.54811 21.9404 0
118 1 9.98689 21.9404 0
119 1 10.7063 23.1864 0
120 1 12.1451 23.1864 0
121 1 12.8645 24.4324 0
122 1 1.35418 24.4324 0
123 1 2.07357 25.6785 0
124 1 3.51236 25.6785 0
125 1 4.23175 24.4324 0
126 1 5.67054 24.4324 0
127 1 6.38993 25.6785 0
128 1 7.82871 25.6785 0
129 1 8.54811 24.4324 0
130 1 9.98689 24.4324 0
131 1 10.7063 25.6785 0
132 1 12.1451 25.6785 0
133 1 12.8645 26.9245 0
134 1 1.35418 26.9245 0
135 1 2.07357 28.1705 0
136 1 3.51236 28.1705 0
137 1 4.23175 26.9245 0
138 1 5.67054 26.9245 0
139 1 6.38993 28.1705 0
140 1 7.82871 28.1705 0
141 1 8.54811 26.9245 0
142 1 9.98689 26.9245 0
143 1 10.7063 28.1705 0
144 1 12.1451 28.1705 0
145 1 12.8645 29.4165 0
146 1 1.35418 29.4165 0
147 1 2.07357 30.6626 0
148 1 3.51236 30.6626 0
149 1 4.23175 29.4165 0
150 1 5.67054 29.4165 0
151 1 6.38993 30.6626 0
152 1 7.82871 30.6626 0
153 1 8.54811 29.4165 0
154 1 9.98689 29.4165 0
155 1 10.7063 30.6626 0
156 1 12.1451 30.6626 0
157 1 12.8645 31.9086 0
158 1 1.35418 31.9086 0
159 1 2.07357 33.1546 0
160 1 3.51236 33.1546 0
161 1 4.23175 31.9086 0
162 1 5.67054 31.9086 0
163 1 6.38993 33.1546 0
164 1 7.82871 33.1546 0
165 1 8.54811 31.9086 0
166 1 9.98689 31.9086 0
167 1 10.7063 33.1546 0
168 1 12.1451 33.1546 0
169 1 12.8645 34.4006 0
170 1 1.35418 34.4006 0
171 1 2.07357 35.6467 0
172 1 3.51236 35.6467 0
173 1 4.23175 34.4006 0
174 1 5.67054 34.4006 0
175 1 6.38993 35.6467 0
176 1 7.82871 35.6467 0
177 1 8.54811 34.4006 0
178 1 9.98689 34.4006 0
179 1 10.7063 35.6467 0
180 1 12.1451 35.6467 0
181 1 12.8645 36.8927 0
182 1 1.35418 36.8927 0
183 1 2.07357 38.1387 0
184 1 3.51236 38.1387 0
185 1 4.23175 36.8927 0
186 1 5.67054 36.8927 0
187 1 6.38993 38.1387 0
188 1 7.82871 38.1387 0
189 1 8.54811 36.8927 0
190 1 9.98689 36.8927 0
191 1 10.7063 38.1387 0
192 1 12.1451 38.1387 0
193 1 12.8645 39.3847 0
194 1 1.35418 39.3847 0
195 1 2.07357 40.6308 0
196 1 3.51236 40.6308 0
197 1 4.23175 39.3847 0
198 1 5.67054 39.3847 0
199 1 6.38993 40.6308 0
200 1 7.82871 40.6308 0
201 1 8.54811 39.3847 0
202 1 9.98689 39.3847 0
203 1 10.7063 40.6308 0
204 1 12.1451 40.6308 0
205 1 12.8645 41.8768 0
206 1 1.35418 41.8768 0
207 1 2.07357 43.1228 0
208 1 3.51236 43.1228 0
209 1 4.23175 41.8768 0
210 1 5.67054 41.8768 0
211 1 6.38993 43.1228 0
212 1 7.82871 43.1228 0
213 1 8.54811 41.8768 0
214 1 9.98689 41.8768 0
215 1 10.7063 43.1228 0
216 1 12.1451 43.1228 0
217 1 12.8645 44.3688 0
218 1 1.35418 44.3688 0
219 1 2.07357 45.6149 0
220 1 3.51236 45.6149 0
221 1 4.23175 44.3688 0
222 1 5.67054 44.3688 0
223 1 6.38993 45.6149 0
224 1 7.82871 45.6149 0
225 1 8.54811 44.3688 0
226 1 9.98689 44.3688 0
227 1 10.7063 45.6149 0
228 1 12.1451 45.6149 0
229 1 12.8645 46.8609 0
230 1 1.35418 46.8609 0
231 1 2.07357 48.1069 0
232 1 3.51236 48.1069 0
233 1 4.23175 46.8609 0
234 1 5.67054 46.8609 0
235 1 6.38993 48.1069 0
236 1 7.82871 48.1069 0
237 1 8.54811 46.8609 0
238 1 9.98689 46.8609 0
239 1 10.7063 48.1069 0
240 1 12.1451 48.1069 0
241 1 12.8645 49.3529 0
242 1 1.35418 49.3529 0
243 1 2.07357 50.599 0
244 1 3.51236 50.599 0
245 1 4.23175 49.3529 0
246 1 5.67054 49.3529 0
247 1 6.38993 50.599 0
248 1 7.82871 50.599 0
249 1 8.54811 49.3529 0
250 1 9.98689 49.3529 0
251 1 10.7063 50.599 0
252 1 12.1451 50.599 0
253 1 12.8645 51.845 0
254 1 1.35418 51.845 0
255 1 2.07357 53.091 0
256 1 3.51236 53.091 0
257 1 4.23175 51.845 0
258 1 5.67054 51.845 0
259 1 6.38993 53.091 0
260 1 7.82871 53.091 0
261 1 8.54811 51.845 0
262 1 9.98689 51.845 0
263 1 10.7063 53.091 0
264 1 12.1451 53.091 0
265 1 12.8645 54.337 0
266 1 1.35418 54.337 0
267 1 2.07357 55.583 0
268 1 3.51236 55.583 0
269 1 4.23175 54.337 0
270 1 5.67054 54.337 0
271 1 6.38993 55.583 0
272 1 7.82871 55.583 0
273 1 8.54811 54.337 0
274 1 9.98689 54.337 0
275 1 10.7063 55.583 0
276 1 12.1451 55.583 0
277 1 12.8645 56.8291 0
278 1 1.35418 56.8291 0
279 1 2.07357 58.0751 0
280 1 3.51236 58.0751 0
281 1 4.23175 56.8291 0
282 1 5.67054 56.8291 0
283 1 6.38993 58.0751 0
284 1 7.82871 58.0751 0
285 1 8.54811 56.8291 0
286 1 9.98689 56.8291 0
287 1 10.7063 58.0751 0
288 1 12.1451 58.0751 0
289 1 12.8645 59.3211 0
290 1 1.35418 59.3211 0
291 1 2.07357 60.5671 0
292 1 3.51236 60.5671 0
293 1 4.23175 59.3211 0
294 1 5.67054 59.3211 0
295 1 6.38993 60.5671 0
296 1 7.82871 60.5671 0
297 1 8.54811 59.3211 0
298 1 9.98689 59.3211 0
299 1 10.7063 60.5671 0
300 1 12.1451 60.5671 0
301 1 12.8645 61.8132 0
302 1 1.35418 61.8132 0
303 1 2.07357 63.0592 0
304 1 3.51236 63.0592 0
305 1 4.23175 61.8132 0
306 1 5.67054 61.8132 0
307 1 6.38993 63.0592 0
308 1 7.82871 63.0592 0
309 1 8.54811 61.8132 0
310 1 9.98689 61.8132 0
311 1 10.7063 63.0592 0
312 1 12.1451 63.0592 0
313 1 12.8645 64.3052 0
314 1 1.35418 64.3052 0
315 1 2.07357 65.5512 0
316 1 3.51236 65.5512 0
317 1 4.23175 64.3052 0
318 1 5.67054 64.3052 0
319 1 6.38993 65.5512 0
320 1 7.82871 65.5512 0
321 1 8.54811 64.3052 0
322 1 9.98689 64.3052 0
323 1 10.7063 65.5512 0
324 1 12.1451 65.5512 0
325 1 12.8645 66.7973 0
326 1 1.35418 66.7973 0
327 1 2.07357 68.0433 0
328 1 3.51236 68.0433 0
329 1 4.23175 66.7973 0
330 1 5.67054 66.7973 0
331 1 6.38993 68.0433 0
332 1 7.82871 68.0433 0
333 1 8.54811 66.7973 0
334 1 9.98689 66.7973 0
335 1 10.7063 68.0433 0
336 1 12.1451 68.0433 0
337 1 12.8645 69.2893 0
338 1 1.35418 69.2893 0
339 1 2.07357 70.5353 0
340 1 3.51236 70.5353 0
341 1 4.23175 69.2893 0
342 1 5.67054 69.2893 0
343 1 6.38993 70.5353 0
344 1 7.82871 70.5353 0
345 1 8.54811 69.2893 0
346 1 9.98689 69.2893 0
347 1 10.7063 70.5353 0
348 1 12.1451 70.5353 0
349 1 12.8645 71.7814 0
350 1 1.35418 71.7814 0
351 1 2.07357 73.0274 0
352 1 3.51236 73.0274 0
353 1 4.23175 71.7814 0
354 1 5.67054 71.7814 0
355 1 6.38993 73.0274 0
356 1 7.82871 73.0274 0
357 1 8.54811 71.7814 0
358 1 9.98689 71.7814 0
359 1 10.7063 73.0274 0
360 1 12.1451 73.0274 0
