ITEM: TIMESTEP
100
ITEM: NUMBER OF ATOMS
4
ITEM: BOX BOUNDS pp pp pp
-2.8177689338637145e-02 4.2881776893386379e+00
-1.6268396524801373e-02 2.4757805432726125e+00
0.0000000000000000e+00 1.2000000000000000e+02
ITEM: ATOMS id type x y z
1 1 4.28811 2.47578 0
2 1 1.41054 2.47578 0
3 1 2.12993 1.22976 0
4 1 3.56871 1.22976 0
