calculator: lammps
length_unit: angstrom
nqpoint: 303    
npath: 3      
segment_nqpoint:
- 101
- 101
- 101
reciprocal_lattice:
- [   0.23474178,   0.00000000,   0.00000000 ] # a*
- [   0.00000000,   0.40658470,   0.00000000 ] # b*
- [   0.00000000,   0.00000000,   0.10000000 ] # c*
natom: 4      
lattice:
- [     4.260000000000000,     0.000000000000000,     0.000000000000000 ] # a
- [     0.000000000000000,     2.459512146747810,     0.000000000000000 ] # b
- [     0.000000000000000,     0.000000000000000,    10.000000000000000 ] # c
points:
- symbol: H # 1
  coordinates: [  0.000000000000000,  0.000000000000000,  0.000000000000000 ]
  mass: 1.007940
- symbol: H # 2
  coordinates: [  0.333300000000000,  0.000000000000000,  0.000000000000000 ]
  mass: 1.007940
- symbol: H # 3
  coordinates: [  0.500000000000000,  0.500000000000000,  0.000000000000000 ]
  mass: 1.007940
- symbol: H # 4
  coordinates: [  0.833300000000000,  0.500000000000000,  0.000000000000000 ]
  mass: 1.007940

phonon:
- q-position: [    0.0000000,    0.0000000,    0.0000000 ]
  distance:    0.0000000
  band:
  - # 1
    frequency:   -0.0029402002
    eigenvector:
    - # atom 1
      - [  0.00000012436099,  0.00000000000000 ]
      - [ -0.00000001142736,  0.00000000000000 ]
      - [  0.49999999999999,  0.00000000000000 ]
    - # atom 2
      - [  0.00000012436099,  0.00000000000000 ]
      - [ -0.00000001142736,  0.00000000000000 ]
      - [  0.49999999999998,  0.00000000000000 ]
    - # atom 3
      - [  0.00000012436099,  0.00000000000000 ]
      - [ -0.00000001142736,  0.00000000000000 ]
      - [  0.49999999999998,  0.00000000000000 ]
    - # atom 4
      - [  0.00000012436099,  0.00000000000000 ]
      - [ -0.00000001142736,  0.00000000000000 ]
      - [  0.49999999999998,  0.00000000000000 ]
  - # 2
    frequency:   -0.0000037937
    eigenvector:
    - # atom 1
      - [ -0.49999999999998,  0.00000000000000 ]
      - [ -0.00000000513819,  0.00000000000000 ]
      - [  0.00000012436099,  0.00000000000000 ]
    - # atom 2
      - [ -0.49999999999998,  0.00000000000000 ]
      - [ -0.00000000513819,  0.00000000000000 ]
      - [  0.00000012436099,  0.00000000000000 ]
    - # atom 3
      - [ -0.49999999999998,  0.00000000000000 ]
      - [ -0.00000000513819,  0.00000000000000 ]
      - [  0.00000012436099,  0.00000000000000 ]
    - # atom 4
      - [ -0.49999999999998,  0.00000000000000 ]
      - [ -0.00000000513819,  0.00000000000000 ]
      - [  0.00000012436099,  0.00000000000000 ]
  - # 3
    frequency:    0.0076537955
    eigenvector:
    - # atom 1
      - [ -0.00000000513818,  0.00000000000000 ]
      - [  0.50000000000000,  0.00000000000000 ]
      - [  0.00000001142736,  0.00000000000000 ]
    - # atom 2
      - [ -0.00000000513818,  0.00000000000000 ]
      - [  0.50000000000000,  0.00000000000000 ]
      - [  0.00000001142736,  0.00000000000000 ]
    - # atom 3
      - [ -0.00000000513818,  0.00000000000000 ]
      - [  0.50000000000000,  0.00000000000000 ]
      - [  0.00000001142736,  0.00000000000000 ]
    - # atom 4
      - [ -0.00000000513818,  0.00000000000000 ]
      - [  0.50000000000000,  0.00000000000000 ]
      - [  0.00000001142736,  0.00000000000000 ]
  - # 4
    frequency:   43.3583453412
    eigenvector:
    - # atom 1
      - [  0.00000000000000,  0.00000000000000 ]
      - [  0.00000000000000,  0.00000000000000 ]
      - [ -0.50000000000000,  0.00000000000000 ]
    - # atom 2
      - [  0.00000000000000,  0.00000000000000 ]
      - [  0.00000000000000,  0.00000000000000 ]
      - [  0.50000000000000,  0.00000000000000 ]
    - # atom 3
      - [  0.00000000000000,  0.00000000000000 ]
      - [  0.00000000000000,  0.00000000000000 ]
      - [  0.50000000000000,  0.00000000000000 ]
    - # atom 4
      - [  0.00000000000000,  0.00000000000000 ]
      - [  0.00000000000000,  0.00000000000000 ]
      - [ -0.50000000000000,  0.00000000000000 ]
  - # 5
    frequency:   83.2708445159
    eigenvector:
    - # atom 1
      - [ -0.00000000000000,  0.00000000000000 ]
      - [ -0.50000000000000,  0.00000000000000 ]
      - [  0.00000000000000,  0.00000000000000 ]
    - # atom 2
      - [ -0.00000000000000,  0.00000000000000 ]
      - [  0.50000000000000,  0.00000000000000 ]
      - [  0.00000000000000,  0.00000000000000 ]
    - # atom 3
      - [ -0.00000000000000,  0.00000000000000 ]
      - [  0.50000000000000,  0.00000000000000 ]
      - [ -0.00000000000000,  0.00000000000000 ]
    - # atom 4
      - [  0.00000000000000,  0.00000000000000 ]
      - [ -0.50000000000000,  0.00000000000000 ]
      - [ -0.00000000000000,  0.00000000000000 ]
  - # 6
    frequency:   89.9216618295
    eigenvector:
    - # atom 1
      - [  0.00000000000000,  0.00000000000000 ]
      - [ -0.00000000000000,  0.00000000000000 ]
      - [ -0.50000000000000,  0.00000000000000 ]
    - # atom 2
      - [  0.00000000000000,  0.00000000000000 ]
      - [  0.00000000000000,  0.00000000000000 ]
      - [ -0.50000000000000,  0.00000000000000 ]
    - # atom 3
      - [  0.00000000000000,  0.00000000000000 ]
      - [  0.00000000000000,  0.00000000000000 ]
      - [  0.50000000000000,  0.00000000000000 ]
    - # atom 4
      - [  0.00000000000000,  0.00000000000000 ]
      - [ -0.00000000000000,  0.00000000000000 ]
      - [  0.50000000000000,  0.00000000000000 ]
  - # 7
    frequency:  136.4207943798
    eigenvector:
    - # atom 1
      - [ -0.00000000000000,  0.00000000000000 ]
      - [ -0.00000000000000,  0.00000000000000 ]
      - [  0.50000000000000,  0.00000000000000 ]
    - # atom 2
      - [ -0.00000000000000,  0.00000000000000 ]
      - [ -0.00000000000000,  0.00000000000000 ]
      - [ -0.50000000000000,  0.00000000000000 ]
    - # atom 3
      - [  0.00000000000000,  0.00000000000000 ]
      - [  0.00000000000000,  0.00000000000000 ]
      - [  0.50000000000000,  0.00000000000000 ]
    - # atom 4
      - [ -0.00000000000000,  0.00000000000000 ]
      - [  0.00000000000000,  0.00000000000000 ]
      - [ -0.50000000000000,  0.00000000000000 ]
  - # 8
    frequency:  147.5179543015
    eigenvector:
    - # atom 1
      - [  0.50000000000001,  0.00000000000000 ]
      - [  0.00000000000000,  0.00000000000000 ]
      - [  0.00000000000000,  0.00000000000000 ]
    - # atom 2
      - [  0.49999999999999,  0.00000000000000 ]
      - [  0.00000000000000,  0.00000000000000 ]
      - [ -0.00000000000000,  0.00000000000000 ]
    - # atom 3
      - [ -0.50000000000001,  0.00000000000000 ]
      - [ -0.00000000000000,  0.00000000000000 ]
      - [  0.00000000000000,  0.00000000000000 ]
    - # atom 4
      - [ -0.49999999999999,  0.00000000000000 ]
      - [ -0.00000000000000,  0.00000000000000 ]
      - [ -0.00000000000000,  0.00000000000000 ]
  - # 9
    frequency:  148.7859536881
    eigenvector:
    - # atom 1
      - [ -0.49999999999999,  0.00000000000000 ]
      - [  0.00000000000000,  0.00000000000000 ]
      - [ -0.00000000000000,  0.00000000000000 ]
    - # atom 2
      - [  0.50000000000001,  0.00000000000000 ]
      - [  0.00000000000000,  0.00000000000000 ]
      - [  0.00000000000000,  0.00000000000000 ]
    - # atom 3
      - [  0.49999999999999,  0.00000000000000 ]
      - [ -0.00000000000000,  0.00000000000000 ]
      - [ -0.00000000000000,  0.00000000000000 ]
    - # atom 4
      - [ -0.50000000000001,  0.00000000000000 ]
      - [ -0.00000000000000,  0.00000000000000 ]
      - [  0.00000000000000,  0.00000000000000 ]
  - # 10
    frequency:  172.4641351403
    eigenvector:
    - # atom 1
      - [  0.00000000000000,  0.00000000000000 ]
      - [ -0.50000000000000,  0.00000000000000 ]
      - [ -0.00000000000000,  0.00000000000000 ]
    - # atom 2
      - [  0.00000000000000,  0.00000000000000 ]
      - [ -0.50000000000000,  0.00000000000000 ]
      - [  0.00000000000000,  0.00000000000000 ]
    - # atom 3
      - [ -0.00000000000000,  0.00000000000000 ]
      - [  0.50000000000000,  0.00000000000000 ]
      - [ -0.00000000000000,  0.00000000000000 ]
    - # atom 4
      - [ -0.00000000000000,  0.00000000000000 ]
      - [  0.50000000000000,  0.00000000000000 ]
      - [  0.00000000000000,  0.00000000000000 ]
  - # 11
    frequency:  183.6147633379
    eigenvector:
    - # atom 1
      - [  0.00000000000001,  0.00000000000000 ]
      - [  0.50000000000000,  0.00000000000000 ]
      - [ -0.00000000000000,  0.00000000000000 ]
    - # atom 2
      - [ -0.00000000000001,  0.00000000000000 ]
      - [ -0.50000000000000,  0.00000000000000 ]
      - [  0.00000000000000,  0.00000000000000 ]
    - # atom 3
      - [  0.00000000000001,  0.00000000000000 ]
      - [  0.50000000000000,  0.00000000000000 ]
      - [  0.00000000000000,  0.00000000000000 ]
    - # atom 4
      - [ -0.00000000000001,  0.00000000000000 ]
      - [ -0.50000000000000,  0.00000000000000 ]
      - [  0.00000000000000,  0.00000000000000 ]
  - # 12
    frequency:  183.6178178600
    eigenvector:
    - # atom 1
      - [  0.50000000000000,  0.00000000000000 ]
      - [ -0.00000000000001,  0.00000000000000 ]
      - [ -0.00000000000000,  0.00000000000000 ]
    - # atom 2
      - [ -0.50000000000000,  0.00000000000000 ]
      - [  0.00000000000001,  0.00000000000000 ]
      - [  0.00000000000000,  0.00000000000000 ]
    - # atom 3
      - [  0.50000000000000,  0.00000000000000 ]
      - [ -0.00000000000001,  0.00000000000000 ]
      - [ -0.00000000000000,  0.00000000000000 ]
    - # atom 4
      - [ -0.50000000000000,  0.00000000000000 ]
      - [  0.00000000000001,  0.00000000000000 ]
      - [  0.00000000000000,  0.00000000000000 ]

- q-position: [    0.0050000,    0.0000000,    0.0000000 ]
  distance:    0.0011737
  band:
  - # 1
    frequency:   -0.1074655554
    eigenvector:
    - # atom 1
      - [  0.00000000000097,  0.00000000000000 ]
      - [  0.00000000000204,  0.00000000000012 ]
      - [  0.49999989210193,  0.00032847839409 ]
    - # atom 2
      - [  0.00000000000097, -0.00000000000000 ]
      - [  0.00000000000204,  0.00000000000013 ]
      - [  0.49999989140637,  0.00032953546067 ]
    - # atom 3
      - [  0.00000000000097, -0.00000000000000 ]
      - [  0.00000000000204,  0.00000000000012 ]
      - [  0.49999989210193,  0.00032847839409 ]
    - # atom 4
      - [  0.00000000000097, -0.00000000000000 ]
      - [  0.00000000000204,  0.00000000000013 ]
      - [  0.49999989140637,  0.00032953546067 ]
  - # 2
    frequency:    0.9132031118
    eigenvector:
    - # atom 1
      - [ -0.50000000000000,  0.00000000000000 ]
      - [ -0.00000000000084,  0.00000000000000 ]
      - [  0.00000000000097,  0.00000000000000 ]
    - # atom 2
      - [ -0.49999817146113,  0.00135223353380 ]
      - [ -0.00000000000084,  0.00000000000000 ]
      - [  0.00000000000097,  0.00000000000000 ]
    - # atom 3
      - [ -0.50000000000000, -0.00000000000000 ]
      - [ -0.00000000000084,  0.00000000000000 ]
      - [  0.00000000000097,  0.00000000000000 ]
    - # atom 4
      - [ -0.49999817146113,  0.00135223353380 ]
      - [ -0.00000000000084,  0.00000000000000 ]
      - [  0.00000000000097,  0.00000000000000 ]
  - # 3
    frequency:    0.6110539124
    eigenvector:
    - # atom 1
      - [  0.00000000000084,  0.00000000000000 ]
      - [ -0.49999777686329,  0.00149101702609 ]
      - [  0.00000000000204, -0.00000000000013 ]
    - # atom 2
      - [  0.00000000000084, -0.00000000000000 ]
      - [ -0.49999997966151,  0.00014261308384 ]
      - [  0.00000000000204, -0.00000000000013 ]
    - # atom 3
      - [  0.00000000000084, -0.00000000000000 ]
      - [ -0.49999777686329,  0.00149101702609 ]
      - [  0.00000000000204, -0.00000000000013 ]
    - # atom 4
      - [  0.00000000000084, -0.00000000000000 ]
      - [ -0.49999997966151,  0.00014261308384 ]
      - [  0.00000000000204, -0.00000000000013 ]
  - # 4
    frequency:   43.3525994916
    eigenvector:
    - # atom 1
      - [  0.00000000000000,  0.00000000000000 ]
      - [  0.00000000000000, -0.00000000000000 ]
      - [ -0.49999982594725,  0.00041719625480 ]
    - # atom 2
      - [  0.00000000000000, -0.00000000000000 ]
      - [ -0.00000000000000,  0.00000000000000 ]
      - [  0.49989902534050,  0.01004810746430 ]
    - # atom 3
      - [  0.00000000000000, -0.00000000000000 ]
      - [ -0.00000000000000,  0.00000000000000 ]
      - [  0.49999982594726, -0.00041719625480 ]
    - # atom 4
      - [  0.00000000000000,  0.00000000000000 ]
      - [  0.00000000000000, -0.00000000000000 ]
      - [ -0.49989902534050, -0.01004810746430 ]
  - # 5
    frequency:   83.2677935734
    eigenvector:
    - # atom 1
      - [  0.00000000000000,  0.00000000000000 ]
      - [  0.49999843154200,  0.00125237995148 ]
      - [  0.00000000000000, -0.00000000000000 ]
    - # atom 2
      - [  0.00000000000000,  0.00000000000000 ]
      - [ -0.49996695964839, -0.00574797877006 ]
      - [ -0.00000000000000, -0.00000000000000 ]
    - # atom 3
      - [  0.00000000000000, -0.00000000000000 ]
      - [ -0.49999843154200, -0.00125237995148 ]
      - [ -0.00000000000000,  0.00000000000000 ]
    - # atom 4
      - [  0.00000000000000, -0.00000000000000 ]
      - [  0.49996695964839,  0.00574797877006 ]
      - [ -0.00000000000000,  0.00000000000000 ]
  - # 6
    frequency:   89.9273970315
    eigenvector:
    - # atom 1
      - [  0.00000000000000,  0.00000000000000 ]
      - [  0.00000000000000,  0.00000000000000 ]
      - [ -0.49999672128495, -0.00181071927572 ]
    - # atom 2
      - [  0.00000000000000, -0.00000000000000 ]
      - [ -0.00000000000000, -0.00000000000000 ]
      - [ -0.49984929012395, -0.01227546995350 ]
    - # atom 3
      - [  0.00000000000000,  0.00000000000000 ]
      - [ -0.00000000000000, -0.00000000000000 ]
      - [  0.49999672128495,  0.00181071927572 ]
    - # atom 4
      - [  0.00000000000000, -0.00000000000000 ]
      - [  0.00000000000000,  0.00000000000000 ]
      - [  0.49984929012395,  0.01227546995350 ]
  - # 7
    frequency:  136.4188822486
    eigenvector:
    - # atom 1
      - [ -0.00000000000000,  0.00000000000000 ]
      - [  0.00000000000000, -0.00000000000000 ]
      - [  0.49999672790475,  0.00180889041883 ]
    - # atom 2
      - [ -0.00000000000000,  0.00000000000000 ]
      - [  0.00000000000000,  0.00000000000000 ]
      - [ -0.49999672407939, -0.00180994747873 ]
    - # atom 3
      - [  0.00000000000000,  0.00000000000000 ]
      - [  0.00000000000000,  0.00000000000000 ]
      - [  0.49999672790475,  0.00180889041883 ]
    - # atom 4
      - [ -0.00000000000000, -0.00000000000000 ]
      - [ -0.00000000000000, -0.00000000000000 ]
      - [ -0.49999672407939, -0.00180994747873 ]
  - # 8
    frequency:  147.3745870026
    eigenvector:
    - # atom 1
      - [  0.50000000000001,  0.00000000000000 ]
      - [  0.00000000000000, -0.00000000000000 ]
      - [  0.00000000000000,  0.00000000000000 ]
    - # atom 2
      - [  0.40793510557279, -0.28911753603217 ]
      - [  0.00000000000000, -0.00000000000000 ]
      - [ -0.00000000000000, -0.00000000000000 ]
    - # atom 3
      - [ -0.50000000000001, -0.00000000000000 ]
      - [ -0.00000000000000,  0.00000000000000 ]
      - [  0.00000000000000,  0.00000000000000 ]
    - # atom 4
      - [ -0.40793510557279,  0.28911753603217 ]
      - [ -0.00000000000000,  0.00000000000000 ]
      - [ -0.00000000000000, -0.00000000000000 ]
  - # 9
    frequency:  148.9258534222
    eigenvector:
    - # atom 1
      - [  0.49999999999999, -0.00000000000000 ]
      - [ -0.00000000000000,  0.00000000000000 ]
      - [  0.00000000000000, -0.00000000000000 ]
    - # atom 2
      - [ -0.40793510557280,  0.28911753603218 ]
      - [ -0.00000000000000,  0.00000000000000 ]
      - [ -0.00000000000000,  0.00000000000000 ]
    - # atom 3
      - [ -0.49999999999999,  0.00000000000000 ]
      - [  0.00000000000000, -0.00000000000000 ]
      - [  0.00000000000000, -0.00000000000000 ]
    - # atom 4
      - [  0.40793510557280, -0.28911753603218 ]
      - [ -0.00000000000000, -0.00000000000000 ]
      - [ -0.00000000000000,  0.00000000000000 ]
  - # 10
    frequency:  172.4650782270
    eigenvector:
    - # atom 1
      - [ -0.00000000000000,  0.00000000000000 ]
      - [ -0.49998218023608,  0.00422130860912 ]
      - [ -0.00000000000000, -0.00000000000000 ]
    - # atom 2
      - [  0.00000000000000, -0.00000000000000 ]
      - [ -0.49999992472365, -0.00027436535046 ]
      - [  0.00000000000000,  0.00000000000000 ]
    - # atom 3
      - [ -0.00000000000000,  0.00000000000000 ]
      - [  0.49998218023608, -0.00422130860912 ]
      - [  0.00000000000000, -0.00000000000000 ]
    - # atom 4
      - [ -0.00000000000000,  0.00000000000000 ]
      - [  0.49999992472365,  0.00027436535046 ]
      - [ -0.00000000000000,  0.00000000000000 ]
  - # 11
    frequency:  183.6142445089
    eigenvector:
    - # atom 1
      - [  0.00000000000109,  0.00000000000000 ]
      - [  0.49999192779197, -0.00284115168069 ]
      - [ -0.00000000000000,  0.00000000000000 ]
    - # atom 2
      - [ -0.00000000000109,  0.00000000000000 ]
      - [ -0.49999777166679,  0.00149275860264 ]
      - [  0.00000000000000, -0.00000000000000 ]
    - # atom 3
      - [  0.00000000000109, -0.00000000000000 ]
      - [  0.49999192779197, -0.00284115168069 ]
      - [ -0.00000000000000,  0.00000000000000 ]
    - # atom 4
      - [ -0.00000000000109,  0.00000000000000 ]
      - [ -0.49999777166679,  0.00149275860264 ]
      - [  0.00000000000000, -0.00000000000000 ]
  - # 12
    frequency:  183.6172574671
    eigenvector:
    - # atom 1
      - [ -0.50000000000000,  0.00000000000000 ]
      - [  0.00000000000109, -0.00000000000001 ]
      - [  0.00000000000000, -0.00000000000000 ]
    - # atom 2
      - [  0.49999817146113, -0.00135223353380 ]
      - [ -0.00000000000109,  0.00000000000000 ]
      - [ -0.00000000000000,  0.00000000000000 ]
    - # atom 3
      - [ -0.50000000000000, -0.00000000000000 ]
      - [  0.00000000000109, -0.00000000000001 ]
      - [  0.00000000000000, -0.00000000000000 ]
    - # atom 4
      - [  0.49999817146113, -0.00135223353380 ]
      - [ -0.00000000000109,  0.00000000000000 ]
      - [ -0.00000000000000, -0.00000000000000 ]

- q-position: [    0.0100000,    0.0000000,    0.0000000 ]
  distance:    0.0023474
  band:
  - # 1
    frequency:   -0.2147664852
    eigenvector:
    - # atom 1
      - [  0.00000000000018,  0.00000000000000 ]
      - [ -0.00000000000052, -0.00000000000003 ]
      - [ -0.49999064844211,  0.00305801740354 ]
    - # atom 2
      - [  0.00000000000018, -0.00000000000000 ]
      - [ -0.00000000000052, -0.00000000000003 ]
      - [ -0.49999066224541,  0.00305575970906 ]
    - # atom 3
      - [  0.00000000000018,  0.00000000000000 ]
      - [ -0.00000000000052, -0.00000000000003 ]
      - [ -0.49999064844211,  0.00305801740354 ]
    - # atom 4
      - [  0.00000000000018, -0.00000000000000 ]
      - [ -0.00000000000052, -0.00000000000003 ]
      - [ -0.49999066224541,  0.00305575970906 ]
  - # 2
    frequency:    1.8263762268
    eigenvector:
    - # atom 1
      - [  0.50000000000000,  0.00000000000000 ]
      - [  0.00000000000054, -0.00000000000001 ]
      - [  0.00000000000018, -0.00000000000000 ]
    - # atom 2
      - [  0.49999268582868, -0.00270446257586 ]
      - [  0.00000000000054, -0.00000000000001 ]
      - [  0.00000000000018, -0.00000000000000 ]
    - # atom 3
      - [  0.50000000000000,  0.00000000000000 ]
      - [  0.00000000000054, -0.00000000000001 ]
      - [  0.00000000000018, -0.00000000000000 ]
    - # atom 4
      - [  0.49999268582868, -0.00270446257586 ]
      - [  0.00000000000054, -0.00000000000001 ]
      - [  0.00000000000018, -0.00000000000000 ]
  - # 3
    frequency:    1.2220098088
    eigenvector:
    - # atom 1
      - [  0.00000000000054,  0.00000000000000 ]
      - [ -0.49988687556526,  0.01063539550742 ]
      - [  0.00000000000052, -0.00000000000004 ]
    - # atom 2
      - [  0.00000000000054, -0.00000000000000 ]
      - [ -0.49993697030674,  0.00793887400813 ]
      - [  0.00000000000052, -0.00000000000004 ]
    - # atom 3
      - [  0.00000000000054,  0.00000000000000 ]
      - [ -0.49988687556526,  0.01063539550742 ]
      - [  0.00000000000052, -0.00000000000004 ]
    - # atom 4
      - [  0.00000000000054, -0.00000000000000 ]
      - [ -0.49993697030674,  0.00793887400813 ]
      - [  0.00000000000052, -0.00000000000004 ]
  - # 4
    frequency:   43.3353718267
    eigenvector:
    - # atom 1
      - [  0.00000000000000,  0.00000000000000 ]
      - [  0.00000000000000,  0.00000000000000 ]
      - [  0.49999836876382, -0.00127719752692 ]
    - # atom 2
      - [  0.00000000000000, -0.00000000000000 ]
      - [  0.00000000000000,  0.00000000000000 ]
      - [ -0.49961419562507, -0.01963811421492 ]
    - # atom 3
      - [  0.00000000000000,  0.00000000000000 ]
      - [  0.00000000000000,  0.00000000000000 ]
      - [ -0.49999836876382,  0.00127719752692 ]
    - # atom 4
      - [  0.00000000000000,  0.00000000000000 ]
      - [  0.00000000000000,  0.00000000000000 ]
      - [  0.49961419562507,  0.01963811421492 ]
  - # 5
    frequency:   83.2586413762
    eigenvector:
    - # atom 1
      - [  0.00000000000000,  0.00000000000000 ]
      - [  0.49989847528531, -0.01007543584292 ]
      - [ -0.00000000000000,  0.00000000000000 ]
    - # atom 2
      - [  0.00000000000000, -0.00000000000000 ]
      - [ -0.49999882165185,  0.00108551681692 ]
      - [ -0.00000000000000,  0.00000000000000 ]
    - # atom 3
      - [  0.00000000000000, -0.00000000000000 ]
      - [ -0.49989847528531,  0.01007543584292 ]
      - [  0.00000000000000, -0.00000000000000 ]
    - # atom 4
      - [  0.00000000000000,  0.00000000000000 ]
      - [  0.49999882165185, -0.00108551681692 ]
      - [ -0.00000000000000, -0.00000000000000 ]
  - # 6
    frequency:   89.9445927475
    eigenvector:
    - # atom 1
      - [ -0.00000000000000,  0.00000000000000 ]
      - [  0.00000000000000, -0.00000000000000 ]
      - [ -0.49998119062377,  0.00433693698743 ]
    - # atom 2
      - [ -0.00000000000000,  0.00000000000000 ]
      - [  0.00000000000000,  0.00000000000000 ]
      - [ -0.49972501690579, -0.01658033408900 ]
    - # atom 3
      - [  0.00000000000000,  0.00000000000000 ]
      - [  0.00000000000000,  0.00000000000000 ]
      - [  0.49998119062378, -0.00433693698743 ]
    - # atom 4
      - [ -0.00000000000000, -0.00000000000000 ]
      - [ -0.00000000000000, -0.00000000000000 ]
      - [  0.49972501690579,  0.01658033408900 ]
  - # 7
    frequency:  136.4131460120
    eigenvector:
    - # atom 1
      - [  0.00000000000000,  0.00000000000000 ]
      - [  0.00000000000000, -0.00000000000000 ]
      - [  0.49994953484257, -0.00710370401236 ]
    - # atom 2
      - [  0.00000000000000, -0.00000000000000 ]
      - [ -0.00000000000000,  0.00000000000000 ]
      - [ -0.49994956691406,  0.00710144650350 ]
    - # atom 3
      - [ -0.00000000000000, -0.00000000000000 ]
      - [ -0.00000000000000, -0.00000000000000 ]
      - [  0.49994953484257, -0.00710370401236 ]
    - # atom 4
      - [ -0.00000000000000,  0.00000000000000 ]
      - [ -0.00000000000000, -0.00000000000000 ]
      - [ -0.49994956691406,  0.00710144650350 ]
  - # 8
    frequency:  147.0493148771
    eigenvector:
    - # atom 1
      - [  0.50000000000000,  0.00000000000000 ]
      - [  0.00000000000000, -0.00000000000000 ]
      - [ -0.00000000000000,  0.00000000000000 ]
    - # atom 2
      - [  0.28715099063616, -0.40932176655618 ]
      - [  0.00000000000000, -0.00000000000000 ]
      - [  0.00000000000000, -0.00000000000000 ]
    - # atom 3
      - [ -0.50000000000000, -0.00000000000000 ]
      - [ -0.00000000000000,  0.00000000000000 ]
      - [ -0.00000000000000,  0.00000000000000 ]
    - # atom 4
      - [ -0.28715099063616,  0.40932176655618 ]
      - [ -0.00000000000000,  0.00000000000000 ]
      - [  0.00000000000000, -0.00000000000000 ]
  - # 9
    frequency:  149.2407230869
    eigenvector:
    - # atom 1
      - [  0.50000000000000, -0.00000000000000 ]
      - [ -0.00000000000000,  0.00000000000000 ]
      - [ -0.00000000000000, -0.00000000000000 ]
    - # atom 2
      - [ -0.28715099063616,  0.40932176655618 ]
      - [ -0.00000000000000,  0.00000000000000 ]
      - [  0.00000000000000,  0.00000000000000 ]
    - # atom 3
      - [ -0.50000000000000,  0.00000000000000 ]
      - [  0.00000000000000, -0.00000000000000 ]
      - [ -0.00000000000000, -0.00000000000000 ]
    - # atom 4
      - [  0.28715099063616, -0.40932176655618 ]
      - [  0.00000000000000, -0.00000000000000 ]
      - [  0.00000000000000,  0.00000000000000 ]
  - # 10
    frequency:  172.4679069585
    eigenvector:
    - # atom 1
      - [ -0.00000000000000,  0.00000000000000 ]
      - [ -0.49982348118103,  0.01328486582834 ]
      - [  0.00000000000000, -0.00000000000000 ]
    - # atom 2
      - [  0.00000000000000, -0.00000000000000 ]
      - [ -0.49998154596469,  0.00429577638550 ]
      - [ -0.00000000000000,  0.00000000000000 ]
    - # atom 3
      - [ -0.00000000000000,  0.00000000000000 ]
      - [  0.49982348118103, -0.01328486582834 ]
      - [  0.00000000000000, -0.00000000000000 ]
    - # atom 4
      - [  0.00000000000000,  0.00000000000000 ]
      - [  0.49998154596469, -0.00429577638550 ]
      - [ -0.00000000000000,  0.00000000000000 ]
  - # 11
    frequency:  183.6126880641
    eigenvector:
    - # atom 1
      - [  0.00000000000193,  0.00000000000000 ]
      - [  0.49996239253466, -0.00613237727261 ]
      - [ -0.00000000000000, -0.00000000000000 ]
    - # atom 2
      - [ -0.00000000000193,  0.00000000000001 ]
      - [ -0.49998819710462,  0.00343551394581 ]
      - [  0.00000000000000, -0.00000000000000 ]
    - # atom 3
      - [  0.00000000000193, -0.00000000000000 ]
      - [  0.49996239253467, -0.00613237727261 ]
      - [ -0.00000000000000, -0.00000000000000 ]
    - # atom 4
      - [ -0.00000000000193,  0.00000000000001 ]
      - [ -0.49998819710462,  0.00343551394581 ]
      - [  0.00000000000000,  0.00000000000000 ]
  - # 12
    frequency:  183.6155761541
    eigenvector:
    - # atom 1
      - [ -0.50000000000000,  0.00000000000000 ]
      - [  0.00000000000193, -0.00000000000002 ]
      - [ -0.00000000000000, -0.00000000000000 ]
    - # atom 2
      - [  0.49999268582868, -0.00270446257586 ]
      - [ -0.00000000000193,  0.00000000000001 ]
      - [  0.00000000000000, -0.00000000000000 ]
    - # atom 3
      - [ -0.50000000000000, -0.00000000000000 ]
      - [  0.00000000000193, -0.00000000000002 ]
      - [ -0.00000000000000, -0.00000000000000 ]
    - # atom 4
      - [  0.49999268582868, -0.00270446257586 ]
      - [ -0.00000000000193,  0.00000000000001 ]
      - [  0.00000000000000,  0.00000000000000 ]

- q-position: [    0.0150000,    0.0000000,    0.0000000 ]
  distance:    0.0035211
  band:
  - # 1
    frequency:   -0.3218720874
    eigenvector:
    - # atom 1
      - [ -0.00000000000006,  0.00000000000000 ]
      - [ -0.00000000000074,  0.00000000000005 ]
      - [ -0.49999567779960,  0.00207898574224 ]
    - # atom 2
      - [ -0.00000000000006,  0.00000000000000 ]
      - [ -0.00000000000075,  0.00000000000005 ]
      - [ -0.49999569335997,  0.00207524010290 ]
    - # atom 3
      - [ -0.00000000000006, -0.00000000000000 ]
      - [ -0.00000000000075,  0.00000000000005 ]
      - [ -0.49999567779960,  0.00207898574224 ]
    - # atom 4
      - [ -0.00000000000006,  0.00000000000000 ]
      - [ -0.00000000000075,  0.00000000000005 ]
      - [ -0.49999569335997,  0.00207524010290 ]
  - # 2
    frequency:    2.7394893505
    eigenvector:
    - # atom 1
      - [  0.50000000000000,  0.00000000000000 ]
      - [  0.00000000000016, -0.00000000000000 ]
      - [ -0.00000000000006,  0.00000000000000 ]
    - # atom 2
      - [  0.49998354305515, -0.00405668263677 ]
      - [  0.00000000000016, -0.00000000000000 ]
      - [ -0.00000000000006,  0.00000000000000 ]
    - # atom 3
      - [  0.50000000000000,  0.00000000000000 ]
      - [  0.00000000000016, -0.00000000000000 ]
      - [ -0.00000000000006,  0.00000000000000 ]
    - # atom 4
      - [  0.49998354305515, -0.00405668263677 ]
      - [  0.00000000000016, -0.00000000000000 ]
      - [ -0.00000000000006,  0.00000000000000 ]
  - # 3
    frequency:    1.8329294548
    eigenvector:
    - # atom 1
      - [  0.00000000000016,  0.00000000000000 ]
      - [ -0.49984574713086,  0.01241889991896 ]
      - [  0.00000000000075,  0.00000000000003 ]
    - # atom 2
      - [  0.00000000000016, -0.00000000000000 ]
      - [ -0.49992987361457,  0.00837385620390 ]
      - [  0.00000000000075,  0.00000000000003 ]
    - # atom 3
      - [  0.00000000000016, -0.00000000000000 ]
      - [ -0.49984574713086,  0.01241889991896 ]
      - [  0.00000000000075,  0.00000000000003 ]
    - # atom 4
      - [  0.00000000000016, -0.00000000000000 ]
      - [ -0.49992987361457,  0.00837385620390 ]
      - [  0.00000000000075,  0.00000000000003 ]
  - # 4
    frequency:   43.3066919244
    eigenvector:
    - # atom 1
      - [  0.00000000000000,  0.00000000000000 ]
      - [  0.00000000000000, -0.00000000000000 ]
      - [ -0.49998005440501,  0.00446600460804 ]
    - # atom 2
      - [  0.00000000000000, -0.00000000000000 ]
      - [ -0.00000000000000, -0.00000000000000 ]
      - [  0.49927734033803,  0.02687261477755 ]
    - # atom 3
      - [  0.00000000000000, -0.00000000000000 ]
      - [ -0.00000000000000, -0.00000000000000 ]
      - [  0.49998005440501, -0.00446600460804 ]
    - # atom 4
      - [  0.00000000000000, -0.00000000000000 ]
      - [  0.00000000000000, -0.00000000000000 ]
      - [ -0.49927734033803, -0.02687261477755 ]
  - # 5
    frequency:   83.2433898153
    eigenvector:
    - # atom 1
      - [  0.00000000000000,  0.00000000000000 ]
      - [  0.49996052637064, -0.00628268025508 ]
      - [ -0.00000000000000, -0.00000000000000 ]
    - # atom 2
      - [  0.00000000000000,  0.00000000000000 ]
      - [ -0.49994814742549, -0.00720068648268 ]
      - [ -0.00000000000000, -0.00000000000000 ]
    - # atom 3
      - [  0.00000000000000, -0.00000000000000 ]