36   
2    

1    
  0.0071692477189760   0.0041391671004379   0.0056097399991987
  -0.5827870064   -0.3272119928   -0.1402839972
  -0.0098715064    0.0000000072    0.0000000028
  -0.0098715064    0.0000000072    0.0000000028
  -0.0236286064    0.0370511072   -0.0125953972
  -0.0098715064    0.0000000072    0.0000000028
  -0.0098715064    0.0000000072    0.0000000028
   0.0020393436   -0.0075831428   -0.0123857972
  -0.0098715064    0.0000000072    0.0000000028
  -0.0098715064    0.0000000072    0.0000000028
   0.2678439936    0.0481455072    0.0713475028
   0.0098714936    0.0000000072    0.0000000028
   0.0098714936    0.0000000072    0.0000000028
   0.0098714936    0.0000000072    0.0000000028
   0.0098714936    0.0000000072    0.0000000028
   0.0098714936    0.0000000072    0.0000000028
   0.0098714936    0.0000000072    0.0000000028
   0.0098714936    0.0000000072    0.0000000028
   0.0098714936    0.0000000072    0.0000000028
   0.0288653936   -0.0077658028   -0.0127128972
  -0.0098715064    0.0000000072    0.0000000028
   0.0151028936   -0.0310817928   -0.0123993972
  -0.0098715064    0.0000000072    0.0000000028
  -0.0098715064    0.0000000072    0.0000000028
  -0.0098715064    0.0000000072    0.0000000028
  -0.0108104064    0.0139589072   -0.0126123972
  -0.0098715064    0.0000000072    0.0000000028
   0.0025663736    0.0368034072   -0.0122900972
   0.0098714936    0.0000000072    0.0000000028
   0.0098714936    0.0000000072    0.0000000028
   0.0898251936    0.0473336072    0.0717704028
   0.0098714936    0.0000000072    0.0000000028
   0.0098714936    0.0000000072    0.0000000028
   0.0098714936    0.0000000072    0.0000000028
   0.0098714936    0.0000000072    0.0000000028
   0.0098714936    0.0000000072    0.0000000028
   0.1714969936    0.1903500072    0.0721620028

1    
 -0.0071692477189760  -0.0041391671004379  -0.0056097399991987
   0.5600209961    0.3324350142    0.1402870139
  -0.0098715039    0.0000000142    0.0000000139
  -0.0098715039    0.0000000142    0.0000000139
   0.0045231961   -0.0371484858    0.0123991139
  -0.0098715039    0.0000000142    0.0000000139
  -0.0098715039    0.0000000142    0.0000000139
  -0.0215105039    0.0077851442    0.0126120139
  -0.0098715039    0.0000000142    0.0000000139
  -0.0098715039    0.0000000142    0.0000000139
  -0.2361430039   -0.0449274858   -0.0721457861
   0.0098714961    0.0000000142    0.0000000139
   0.0098714961    0.0000000142    0.0000000139
   0.0098714961    0.0000000142    0.0000000139
   0.0098714961    0.0000000142    0.0000000139
   0.0098714961    0.0000000142    0.0000000139
   0.0098714961    0.0000000142    0.0000000139
   0.0098714961    0.0000000142    0.0000000139
   0.0098714961    0.0000000142    0.0000000139
  -0.0479722039    0.0076459742    0.0122900139
  -0.0098715039    0.0000000142    0.0000000139
  -0.0350807039    0.0304819142    0.0125960139
  -0.0098715039    0.0000000142    0.0000000139
  -0.0098715039    0.0000000142    0.0000000139
  -0.0098715039    0.0000000142    0.0000000139
  -0.0092437639   -0.0140936858    0.0123863139
  -0.0098715039    0.0000000142    0.0000000139
  -0.0225238039   -0.0374139858    0.0127128139
   0.0098714961    0.0000000142    0.0000000139
   0.0098714961    0.0000000142    0.0000000139
  -0.0710411039   -0.0456777858   -0.0717715861
   0.0098714961    0.0000000142    0.0000000139
   0.0098714961    0.0000000142    0.0000000139
   0.0098714961    0.0000000142    0.0000000139
   0.0098714961    0.0000000142    0.0000000139
   0.0098714961    0.0000000142    0.0000000139
  -0.1605150039   -0.1990869858   -0.0713662861
