ITEM: TIMESTEP
29
ITEM: NUMBER OF ATOMS
4
ITEM: BOX BOUNDS pp pp pp
-2.8177689338637145e-02 4.2881776893386379e+00
-1.6268396524801373e-02 2.4757805432726125e+00
0.0000000000000000e+00 1.2000000000000000e+02
ITEM: ATOMS id type fx fy fz
1 1 1.77636e-14 -7.77156e-15 0
2 1 -8.88178e-15 3.01981e-14 0
3 1 1.42109e-14 -2.4869e-14 0
4 1 -2.13163e-14 3.10862e-15 0
