ITEM: TIMESTEP
0
ITEM: NUMBER OF ATOMS
4
ITEM: BOX BOUNDS pp pp pp
0.0000000000000000e+00 4.2599999999999998e+00
0.0000000000000000e+00 2.4595121467478100e+00
0.0000000000000000e+00 1.2000000000000000e+02
ITEM: ATOMS id type fx fy fz
1 1 -0.0098715 0 0
2 1 0.0098715 3.55271e-15 0
3 1 -0.0098715 3.55271e-15 0
4 1 0.0098715 1.33227e-15 0
