ITEM: TIMESTEP
0
ITEM: NUMBER OF ATOMS
36
ITEM: BOX BOUNDS pp pp pp
0.0000000000000000e+00 1.2779999999999999e+01
0.0000000000000000e+00 7.3785364402434297e+00
0.0000000000000000e+00 1.0000000000000000e+01
ITEM: ATOMS id type x y z fx fy fz
4 1 0 2.45951 0 0.0045232 -0.0371485 0.0123991
10 1 1.41986 0 0 -0.236143 -0.0449275 -0.0721458
13 1 1.41986 2.45951 0 0.0098715 4.04121e-14 0
19 1 2.13 1.22976 0 -0.0479722 0.00764596 0.01229
28 1 3.54986 1.22976 0 0.0098715 4.76286e-14 0
2 1 4.26 0 0 -0.0098715 -5.86198e-14 0
5 1 4.26 2.45951 0 -0.0098715 -5.87308e-14 0
11 1 5.67986 0 0 0.0098715 3.19744e-14 0
14 1 5.67986 2.45951 0 0.0098715 5.17364e-14 0
20 1 6.39 1.22976 0 -0.0098715 -4.92939e-14 0
29 1 7.80986 1.22976 0 0.0098715 -4.24105e-14 0
3 1 8.52 0 0 -0.0098715 3.37508e-14 0
6 1 8.52 2.45951 0 -0.0098715 5.35127e-14 0
12 1 9.93986 0 0 0.0098715 -5.68434e-14 0
15 1 9.93986 2.45951 0 0.0098715 -5.62883e-14 0
21 1 10.65 1.22976 0 -0.0350807 0.0304819 0.012596
30 1 12.0699 1.22976 0 -0.0710411 -0.0456778 -0.0717716
7 1 0 4.91902 0 -0.0215105 0.00778513 0.012612
16 1 1.41986 4.91902 0 0.0098715 9.9365e-14 0
22 1 2.13 3.68927 0 -0.0098715 -3.68594e-14 0
31 1 3.54986 3.68927 0 0.0098715 4.76286e-14 0
8 1 4.26 4.91902 0 -0.0098715 1.18794e-14 0
17 1 5.67986 4.91902 0 0.0098715 1.07137e-13 0
23 1 6.39 3.68927 0 -0.0098715 -2.79776e-14 0
32 1 7.80986 3.68927 0 0.0098715 -2.34257e-14 0
9 1 8.52 4.91902 0 -0.0098715 1.03584e-13 0
18 1 9.93986 4.91902 0 0.0098715 1.43219e-14 0
24 1 10.65 3.68927 0 -0.0098715 4.84057e-14 0
33 1 12.0699 3.68927 0 0.0098715 -4.9738e-14 0
25 1 2.13 6.14878 0 -0.00924376 -0.0140937 0.0123863
34 1 3.54986 6.14878 0 0.0098715 -1.95399e-14 0
26 1 6.39 6.14878 0 -0.0098715 -1.01252e-13 0
35 1 7.80986 6.14878 0 0.0098715 -1.03029e-13 0
27 1 10.65 6.14878 0 -0.0225238 -0.037414 0.0127128
36 1 12.0699 6.14878 0 -0.160515 -0.199087 -0.0713663
1 1 12.7728 7.3744 9.99439 0.560021 0.332435 0.140287
