ITEM: TIMESTEP
0
ITEM: NUMBER OF ATOMS
4
ITEM: BOX BOUNDS pp pp pp
0.0000000000000000e+00 4.2599999999999998e+00
0.0000000000000000e+00 2.4595121467478100e+00
0.0000000000000000e+00 1.2000000000000000e+02
ITEM: ATOMS id type x y z fx fy fz
1 1 0.0426 0.0245951 1.2 -0.0098715 4.44089e-16 0
2 1 1.46246 0.0245951 1.2 0.0098715 0 0
3 1 2.1726 1.25435 1.2 -0.0098715 0 0
4 1 3.59246 1.25435 1.2 0.0098715 1.33227e-15 0
