phonopy:
  version: "2.31.0"
  calculator: lammps
  frequency_unit_conversion_factor: 15.633302
  symmetry_tolerance: 1.00000e-05
  configuration:
    atom_name: "C"
    band: "0 0 0  0.5 0 0  0.5 0.5 0  0 0 0"
    band_points: "101"
    band_connection: ".TRUE."
    cell_filename: "graphene.data"

physical_unit:
  atomic_mass: "AMU"
  length: "angstrom"
  force: "eV/angstrom"
  force_constants: "eV/angstrom^2"

space_group:
  type: "Cmmm"
  number: 65
  Hall_symbol: "-C 2 2"

supercell_matrix:
- [   3,   0,   0 ]
- [   0,   3,   0 ]
- [   0,   0,   1 ]

primitive_cell:
  lattice:
  - [     4.260000000000000,     0.000000000000000,     0.000000000000000 ] # a
  - [     0.000000000000000,     2.459512146747810,     0.000000000000000 ] # b
  - [     0.000000000000000,     0.000000000000000,    10.000000000000000 ] # c
  points:
  - symbol: H # 1
    coordinates: [  0.000000000000000,  0.000000000000000,  0.000000000000000 ]
    mass: 1.007940
  - symbol: H # 2
    coordinates: [  0.333300000000000,  0.000000000000000,  0.000000000000000 ]
    mass: 1.007940
  - symbol: H # 3
    coordinates: [  0.500000000000000,  0.500000000000000,  0.000000000000000 ]
    mass: 1.007940
  - symbol: H # 4
    coordinates: [  0.833300000000000,  0.500000000000000,  0.000000000000000 ]
    mass: 1.007940
  reciprocal_lattice: # without 2pi
  - [     0.234741784037559,     0.000000000000000,     0.000000000000000 ] # a*
  - [     0.000000000000000,     0.406584696612412,     0.000000000000000 ] # b*
  - [     0.000000000000000,     0.000000000000000,     0.100000000000000 ] # c*

unit_cell:
  lattice:
  - [     4.260000000000000,     0.000000000000000,     0.000000000000000 ] # a
  - [     0.000000000000000,     2.459512146747810,     0.000000000000000 ] # b
  - [     0.000000000000000,     0.000000000000000,    10.000000000000000 ] # c
  points:
  - symbol: H # 1
    coordinates: [  0.000000000000000,  0.000000000000000,  0.000000000000000 ]
    mass: 1.007940
    reduced_to: 1
  - symbol: H # 2
    coordinates: [  0.333300000000000,  0.000000000000000,  0.000000000000000 ]
    mass: 1.007940
    reduced_to: 2
  - symbol: H # 3
    coordinates: [  0.500000000000000,  0.500000000000000,  0.000000000000000 ]
    mass: 1.007940
    reduced_to: 3
  - symbol: H # 4
    coordinates: [  0.833300000000000,  0.500000000000000,  0.000000000000000 ]
    mass: 1.007940
    reduced_to: 4

supercell:
  lattice:
  - [    12.779999999999999,     0.000000000000000,     0.000000000000000 ] # a
  - [     0.000000000000000,     7.378536440243430,     0.000000000000000 ] # b
  - [     0.000000000000000,     0.000000000000000,    10.000000000000000 ] # c
  points:
  - symbol: H # 1
    coordinates: [  0.000000000000000,  0.000000000000000,  0.000000000000000 ]
    mass: 1.007940
    reduced_to: 1
  - symbol: H # 2
    coordinates: [  0.333333333333333,  0.000000000000000,  0.000000000000000 ]
    mass: 1.007940
    reduced_to: 1
  - symbol: H # 3
    coordinates: [  0.666666666666667,  0.000000000000000,  0.000000000000000 ]
    mass: 1.007940
    reduced_to: 1
  - symbol: H # 4
    coordinates: [  0.000000000000000,  0.333333333333333,  0.000000000000000 ]
    mass: 1.007940
    reduced_to: 1
  - symbol: H # 5
    coordinates: [  0.333333333333333,  0.333333333333333,  0.000000000000000 ]
    mass: 1.007940
    reduced_to: 1
  - symbol: H # 6
    coordinates: [  0.666666666666667,  0.333333333333333,  0.000000000000000 ]
    mass: 1.007940
    reduced_to: 1
  - symbol: H # 7
    coordinates: [  0.000000000000000,  0.666666666666667,  0.000000000000000 ]
    mass: 1.007940
    reduced_to: 1
  - symbol: H # 8
    coordinates: [  0.333333333333333,  0.666666666666667,  0.000000000000000 ]
    mass: 1.007940
    reduced_to: 1
  - symbol: H # 9
    coordinates: [  0.666666666666667,  0.666666666666667,  0.000000000000000 ]
    mass: 1.007940
    reduced_to: 1
  - symbol: H # 10
    coordinates: [  0.111100000000000,  0.000000000000000,  0.000000000000000 ]
    mass: 1.007940
    reduced_to: 10
  - symbol: H # 11
    coordinates: [  0.444433333333333,  0.000000000000000,  0.000000000000000 ]
    mass: 1.007940
    reduced_to: 10
  - symbol: H # 12
    coordinates: [  0.777766666666667,  0.000000000000000,  0.000000000000000 ]
    mass: 1.007940
    reduced_to: 10
  - symbol: H # 13
    coordinates: [  0.111100000000000,  0.333333333333333,  0.000000000000000 ]
    mass: 1.007940
    reduced_to: 10
  - symbol: H # 14
    coordinates: [  0.444433333333333,  0.333333333333333,  0.000000000000000 ]
    mass: 1.007940
    reduced_to: 10
  - symbol: H # 15
    coordinates: [  0.777766666666667,  0.333333333333333,  0.000000000000000 ]
    mass: 1.007940
    reduced_to: 10
  - symbol: H # 16
    coordinates: [  0.111100000000000,  0.666666666666667,  0.000000000000000 ]
    mass: 1.007940
    reduced_to: 10
  - symbol: H # 17
    coordinates: [  0.444433333333333,  0.666666666666667,  0.000000000000000 ]
    mass: 1.007940
    reduced_to: 10
  - symbol: H # 18
    coordinates: [  0.777766666666667,  0.666666666666667,  0.000000000000000 ]
    mass: 1.007940
    reduced_to: 10
  - symbol: H # 19
    coordinates: [  0.166666666666667,  0.166666666666667,  0.000000000000000 ]
    mass: 1.007940
    reduced_to: 19
  - symbol: H # 20
    coordinates: [  0.500000000000000,  0.166666666666667,  0.000000000000000 ]
    mass: 1.007940
    reduced_to: 19
  - symbol: H # 21
    coordinates: [  0.833333333333333,  0.166666666666667,  0.000000000000000 ]
    mass: 1.007940
    reduced_to: 19
  - symbol: H # 22
    coordinates: [  0.166666666666667,  0.500000000000000,  0.000000000000000 ]
    mass: 1.007940
    reduced_to: 19
  - symbol: H # 23
    coordinates: [  0.500000000000000,  0.500000000000000,  0.000000000000000 ]
    mass: 1.007940
    reduced_to: 19
  - symbol: H # 24
    coordinates: [  0.833333333333333,  0.500000000000000,  0.000000000000000 ]
    mass: 1.007940
    reduced_to: 19
  - symbol: H # 25
    coordinates: [  0.166666666666667,  0.833333333333333,  0.000000000000000 ]
    mass: 1.007940
    reduced_to: 19
  - symbol: H # 26
    coordinates: [  0.500000000000000,  0.833333333333333,  0.000000000000000 ]
    mass: 1.007940
    reduced_to: 19
  - symbol: H # 27
    coordinates: [  0.833333333333333,  0.833333333333333,  0.000000000000000 ]
    mass: 1.007940
    reduced_to: 19
  - symbol: H # 28
    coordinates: [  0.277766666666667,  0.166666666666667,  0.000000000000000 ]
    mass: 1.007940
    reduced_to: 28
  - symbol: H # 29
    coordinates: [  0.611100000000000,  0.166666666666667,  0.000000000000000 ]
    mass: 1.007940
    reduced_to: 28
  - symbol: H # 30
    coordinates: [  0.944433333333333,  0.166666666666667,  0.000000000000000 ]
    mass: 1.007940
    reduced_to: 28
  - symbol: H # 31
    coordinates: [  0.277766666666667,  0.500000000000000,  0.000000000000000 ]
    mass: 1.007940
    reduced_to: 28
  - symbol: H # 32
    coordinates: [  0.611100000000000,  0.500000000000000,  0.000000000000000 ]
    mass: 1.007940
    reduced_to: 28
  - symbol: H # 33
    coordinates: [  0.944433333333333,  0.500000000000000,  0.000000000000000 ]
    mass: 1.007940
    reduced_to: 28
  - symbol: H # 34
    coordinates: [  0.277766666666667,  0.833333333333333,  0.000000000000000 ]
    mass: 1.007940
    reduced_to: 28
  - symbol: H # 35
    coordinates: [  0.611100000000000,  0.833333333333333,  0.000000000000000 ]
    mass: 1.007940
    reduced_to: 28
  - symbol: H # 36
    coordinates: [  0.944433333333333,  0.833333333333333,  0.000000000000000 ]
    mass: 1.007940
    reduced_to: 28
