phonopy:
  version: "2.29.1"
  frequency_unit_conversion_factor: 15.633302
  symmetry_tolerance: 1.00000e-05
  configuration:
    displacement_distance: "0.01"
    create_displacements: ".true."
    dim: "3 3 1"

physical_unit:
  atomic_mass: "AMU"
  length: "angstrom"

space_group:
  type: "Cmmm"
  number: 65
  Hall_symbol: "-C 2 2"

supercell_matrix:
- [   3,   0,   0 ]
- [   0,   3,   0 ]
- [   0,   0,   1 ]

primitive_cell:
  lattice:
  - [     4.260000000000000,     0.000000000000000,     0.000000000000000 ] # a
  - [     0.000000000000000,     2.459512146747810,     0.000000000000000 ] # b
  - [     0.000000000000000,     0.000000000000000,   120.000000000000000 ] # c
  points:
  - symbol: C # 1
    coordinates: [  0.000000000000000,  0.000000000000000,  0.000000000000000 ]
    mass: 12.010700
  - symbol: C # 2
    coordinates: [  0.333300000000000,  0.000000000000000,  0.000000000000000 ]
    mass: 12.010700
  - symbol: C # 3
    coordinates: [  0.500000000000000,  0.500000000000000,  0.000000000000000 ]
    mass: 12.010700
  - symbol: C # 4
    coordinates: [  0.833300000000000,  0.500000000000000,  0.000000000000000 ]
    mass: 12.010700
  reciprocal_lattice: # without 2pi
  - [     0.234741784037559,     0.000000000000000,     0.000000000000000 ] # a*
  - [     0.000000000000000,     0.406584696612412,     0.000000000000000 ] # b*
  - [     0.000000000000000,     0.000000000000000,     0.008333333333333 ] # c*

unit_cell:
  lattice:
  - [     4.260000000000000,     0.000000000000000,     0.000000000000000 ] # a
  - [     0.000000000000000,     2.459512146747810,     0.000000000000000 ] # b
  - [     0.000000000000000,     0.000000000000000,   120.000000000000000 ] # c
  points:
  - symbol: C # 1
    coordinates: [  0.000000000000000,  0.000000000000000,  0.000000000000000 ]
    mass: 12.010700
    reduced_to: 1
  - symbol: C # 2
    coordinates: [  0.333300000000000,  0.000000000000000,  0.000000000000000 ]
    mass: 12.010700
    reduced_to: 2
  - symbol: C # 3
    coordinates: [  0.500000000000000,  0.500000000000000,  0.000000000000000 ]
    mass: 12.010700
    reduced_to: 3
  - symbol: C # 4
    coordinates: [  0.833300000000000,  0.500000000000000,  0.000000000000000 ]
    mass: 12.010700
    reduced_to: 4

supercell:
  lattice:
  - [    12.779999999999999,     0.000000000000000,     0.000000000000000 ] # a
  - [     0.000000000000000,     7.378536440243430,     0.000000000000000 ] # b
  - [     0.000000000000000,     0.000000000000000,   120.000000000000000 ] # c
  points:
  - symbol: C # 1
    coordinates: [  0.000000000000000,  0.000000000000000,  0.000000000000000 ]
    mass: 12.010700
    reduced_to: 1
  - symbol: C # 2
    coordinates: [  0.333333333333333,  0.000000000000000,  0.000000000000000 ]
    mass: 12.010700
    reduced_to: 1
  - symbol: C # 3
    coordinates: [  0.666666666666667,  0.000000000000000,  0.000000000000000 ]
    mass: 12.010700
    reduced_to: 1
  - symbol: C # 4
    coordinates: [  0.000000000000000,  0.333333333333333,  0.000000000000000 ]
    mass: 12.010700
    reduced_to: 1
  - symbol: C # 5
    coordinates: [  0.333333333333333,  0.333333333333333,  0.000000000000000 ]
    mass: 12.010700
    reduced_to: 1
  - symbol: C # 6
    coordinates: [  0.666666666666667,  0.333333333333333,  0.000000000000000 ]
    mass: 12.010700
    reduced_to: 1
  - symbol: C # 7
    coordinates: [  0.000000000000000,  0.666666666666667,  0.000000000000000 ]
    mass: 12.010700
    reduced_to: 1
  - symbol: C # 8
    coordinates: [  0.333333333333333,  0.666666666666667,  0.000000000000000 ]
    mass: 12.010700
    reduced_to: 1
  - symbol: C # 9
    coordinates: [  0.666666666666667,  0.666666666666667,  0.000000000000000 ]
    mass: 12.010700
    reduced_to: 1
  - symbol: C # 10
    coordinates: [  0.111100000000000,  0.000000000000000,  0.000000000000000 ]
    mass: 12.010700
    reduced_to: 10
  - symbol: C # 11
    coordinates: [  0.444433333333333,  0.000000000000000,  0.000000000000000 ]
    mass: 12.010700
    reduced_to: 10
  - symbol: C # 12
    coordinates: [  0.777766666666667,  0.000000000000000,  0.000000000000000 ]
    mass: 12.010700
    reduced_to: 10
  - symbol: C # 13
    coordinates: [  0.111100000000000,  0.333333333333333,  0.000000000000000 ]
    mass: 12.010700
    reduced_to: 10
  - symbol: C # 14
    coordinates: [  0.444433333333333,  0.333333333333333,  0.000000000000000 ]
    mass: 12.010700
    reduced_to: 10
  - symbol: C # 15
    coordinates: [  0.777766666666667,  0.333333333333333,  0.000000000000000 ]
    mass: 12.010700
    reduced_to: 10
  - symbol: C # 16
    coordinates: [  0.111100000000000,  0.666666666666667,  0.000000000000000 ]
    mass: 12.010700
    reduced_to: 10
  - symbol: C # 17
    coordinates: [  0.444433333333333,  0.666666666666667,  0.000000000000000 ]
    mass: 12.010700
    reduced_to: 10
  - symbol: C # 18
    coordinates: [  0.777766666666667,  0.666666666666667,  0.000000000000000 ]
    mass: 12.010700
    reduced_to: 10
  - symbol: C # 19
    coordinates: [  0.166666666666667,  0.166666666666667,  0.000000000000000 ]
    mass: 12.010700
    reduced_to: 19
  - symbol: C # 20
    coordinates: [  0.500000000000000,  0.166666666666667,  0.000000000000000 ]
    mass: 12.010700
    reduced_to: 19
  - symbol: C # 21
    coordinates: [  0.833333333333333,  0.166666666666667,  0.000000000000000 ]
    mass: 12.010700
    reduced_to: 19
  - symbol: C # 22
    coordinates: [  0.166666666666667,  0.500000000000000,  0.000000000000000 ]
    mass: 12.010700
    reduced_to: 19
  - symbol: C # 23
    coordinates: [  0.500000000000000,  0.500000000000000,  0.000000000000000 ]
    mass: 12.010700
    reduced_to: 19
  - symbol: C # 24
    coordinates: [  0.833333333333333,  0.500000000000000,  0.000000000000000 ]
    mass: 12.010700
    reduced_to: 19
  - symbol: C # 25
    coordinates: [  0.166666666666667,  0.833333333333333,  0.000000000000000 ]
    mass: 12.010700
    reduced_to: 19
  - symbol: C # 26
    coordinates: [  0.500000000000000,  0.833333333333333,  0.000000000000000 ]
    mass: 12.010700
    reduced_to: 19
  - symbol: C # 27
    coordinates: [  0.833333333333333,  0.833333333333333,  0.000000000000000 ]
    mass: 12.010700
    reduced_to: 19
  - symbol: C # 28
    coordinates: [  0.277766666666667,  0.166666666666667,  0.000000000000000 ]
    mass: 12.010700
    reduced_to: 28
  - symbol: C # 29
    coordinates: [  0.611100000000000,  0.166666666666667,  0.000000000000000 ]
    mass: 12.010700
    reduced_to: 28
  - symbol: C # 30
    coordinates: [  0.944433333333333,  0.166666666666667,  0.000000000000000 ]
    mass: 12.010700
    reduced_to: 28
  - symbol: C # 31
    coordinates: [  0.277766666666667,  0.500000000000000,  0.000000000000000 ]
    mass: 12.010700
    reduced_to: 28
  - symbol: C # 32
    coordinates: [  0.611100000000000,  0.500000000000000,  0.000000000000000 ]
    mass: 12.010700
    reduced_to: 28
  - symbol: C # 33
    coordinates: [  0.944433333333333,  0.500000000000000,  0.000000000000000 ]
    mass: 12.010700
    reduced_to: 28
  - symbol: C # 34
    coordinates: [  0.277766666666667,  0.833333333333333,  0.000000000000000 ]
    mass: 12.010700
    reduced_to: 28
  - symbol: C # 35
    coordinates: [  0.611100000000000,  0.833333333333333,  0.000000000000000 ]
    mass: 12.010700
    reduced_to: 28
  - symbol: C # 36
    coordinates: [  0.944433333333333,  0.833333333333333,  0.000000000000000 ]
    mass: 12.010700
    reduced_to: 28

displacements:
- atom:    1
  displacement:
    [   0.0010570372055374,  0.0006102807151604,  0.0099252319768766 ]
- atom:    1
  displacement:
    [  -0.0010570372055374, -0.0006102807151604, -0.0099252319768766 ]
