#

36 atoms
1 atom types

0.0 12.78 xlo xhi
0.0 7.37853644024343 ylo yhi
0.0 120.0 zlo zhi

4.518050516968111e-16 7.34788079488412e-15 1.3322676295501878e-14 xy xz yz


Atom Type Labels

1 H


Atoms

1 H -0.0010570372055373545 -0.0006102807151604432 -0.009925231976876564
2 H 4.26 0.0 0.0
3 H 8.52 0.0 0.0
4 H 1.50601683898937e-16 2.4595121467478096 0.0
5 H 4.26 2.4595121467478096 0.0
6 H 8.52 2.4595121467478096 0.0
7 H 3.01203367797874e-16 4.919024293495619 0.0
8 H 4.26 4.919024293495619 0.0
9 H 8.52 4.919024293495619 0.0
10 H 1.4198579999999998 0.0 0.0
11 H 5.679857999999999 0.0 0.0
12 H 9.939858 0.0 0.0
13 H 1.419858 2.4595121467478096 0.0
14 H 5.679857999999999 2.4595121467478096 0.0
15 H 9.939858 2.4595121467478096 0.0
16 H 1.419858 4.919024293495619 0.0
17 H 5.679857999999999 4.919024293495619 0.0
18 H 9.939858 4.919024293495619 0.0
19 H 2.13 1.2297560733739048 0.0
20 H 6.39 1.2297560733739048 0.0
21 H 10.649999999999999 1.2297560733739048 0.0
22 H 2.1300000000000003 3.689268220121715 0.0
23 H 6.39 3.689268220121715 0.0
24 H 10.649999999999999 3.689268220121715 0.0
25 H 2.1300000000000003 6.148780366869525 0.0
26 H 6.39 6.148780366869525 0.0
27 H 10.649999999999999 6.148780366869525 0.0
28 H 3.549858 1.2297560733739048 0.0
29 H 7.809857999999999 1.2297560733739048 0.0
30 H 12.069857999999998 1.2297560733739048 0.0
31 H 3.5498580000000004 3.689268220121715 0.0
32 H 7.809857999999999 3.689268220121715 0.0
33 H 12.069857999999998 3.689268220121715 0.0
34 H 3.5498580000000004 6.148780366869525 0.0
35 H 7.809857999999999 6.148780366869525 0.0
36 H 12.069857999999998 6.148780366869525 0.0