#

36 atoms
1 atom types

0.0 12.78 xlo xhi
0.0 7.378536440243429 ylo yhi
0.0 120.0 zlo zhi

-4.38521953390964 7.34788079488412e-15 0.0 xy xz yz


Atom Type Labels

1 H


Atoms

1 H -0.005109016542201474 0.008596391683230339 0.0
2 H 4.26 0.0 0.0
3 H 8.52 0.0 0.0
4 H -1.4617398446365468 2.4595121467478096 0.0
5 H 2.798260155363453 2.4595121467478096 0.0
6 H 7.0582601553634525 2.4595121467478096 0.0
7 H -2.9234796892730937 4.919024293495619 0.0
8 H 1.3365203107269064 4.919024293495619 0.0
9 H 5.596520310726906 4.919024293495619 0.0
10 H 1.4198579999999998 0.0 0.0
11 H 5.679857999999999 0.0 0.0
12 H 9.939858 0.0 0.0
13 H -0.04188184463654683 2.4595121467478096 0.0
14 H 4.218118155363452 2.4595121467478096 0.0
15 H 8.478118155363452 2.4595121467478096 0.0
16 H -1.5036216892730938 4.919024293495619 0.0
17 H 2.756378310726906 4.919024293495619 0.0
18 H 7.016378310726906 4.919024293495619 0.0
19 H 2.1299999999999994 1.2297560733739048 0.0
20 H 6.39 1.2297560733739048 0.0
21 H 10.649999999999999 1.2297560733739048 0.0
22 H 0.6682601553634528 3.6892682201217144 0.0
23 H 4.9282601553634535 3.6892682201217144 0.0
24 H 9.188260155363452 3.6892682201217144 0.0
25 H -0.7934796892730941 6.1487803668695244 0.0
26 H 3.466520310726906 6.1487803668695244 0.0
27 H 7.726520310726905 6.1487803668695244 0.0
28 H 3.5498580000000004 1.2297560733739048 0.0
29 H 7.809858 1.2297560733739048 0.0
30 H -0.7101419999999985 1.2297560733739048 0.0
31 H 2.088118155363454 3.6892682201217144 0.0
32 H 6.348118155363453 3.6892682201217144 0.0
33 H -2.171881844636545 3.6892682201217144 0.0
34 H 0.6263783107269069 6.1487803668695244 0.0
35 H 4.886378310726907 6.1487803668695244 0.0
36 H -3.6336216892730917 6.1487803668695244 0.0