nqpoint: 51     
npath: 1      
segment_nqpoint:
- 51
reciprocal_lattice:
- [   0.01304121,   0.00000000,   0.00000000 ] # a*
- [   0.00000000,   0.20329235,   0.00000000 ] # b*
- [   0.00000000,   0.00000000,   0.03521127 ] # c*
natom: 50     
lattice:
- [    76.680000000000007,     0.000000000000000,     0.000000000000000 ] # a
- [     0.000000000000000,     4.919024293495621,     0.000000000000000 ] # b
- [     0.000000000000000,     0.000000000000000,    28.399999999999999 ] # c
points:
- symbol: C # 1
  coordinates: [  0.333333333333333,  0.000000000000000,  0.000000000000000 ]
  mass: 12.010700
- symbol: C # 2
  coordinates: [  0.351850000000000,  0.000000000000000,  0.000000000000000 ]
  mass: 12.010700
- symbol: C # 3
  coordinates: [  0.361111111111111,  0.250000000000000,  0.000000000000000 ]
  mass: 12.010700
- symbol: C # 4
  coordinates: [  0.379627777777778,  0.250000000000000,  0.000000000000000 ]
  mass: 12.010700
- symbol: C # 5
  coordinates: [  0.388888888888889,  0.000000000000000,  0.000000000000000 ]
  mass: 12.010700
- symbol: C # 6
  coordinates: [  0.407405555555556,  0.000000000000000,  0.000000000000000 ]
  mass: 12.010700
- symbol: C # 7
  coordinates: [  0.416666666666667,  0.250000000000000,  0.000000000000000 ]
  mass: 12.010700
- symbol: C # 8
  coordinates: [  0.435183333333333,  0.250000000000000,  0.000000000000000 ]
  mass: 12.010700
- symbol: C # 9
  coordinates: [  0.444444444444444,  0.000000000000000,  0.000000000000000 ]
  mass: 12.010700
- symbol: C # 10
  coordinates: [  0.462961111111111,  0.000000000000000,  0.000000000000000 ]
  mass: 12.010700
- symbol: C # 11
  coordinates: [  0.472222222222222,  0.250000000000000,  0.000000000000000 ]
  mass: 12.010700
- symbol: C # 12
  coordinates: [  0.490738888888889,  0.250000000000000,  0.000000000000000 ]
  mass: 12.010700
- symbol: C # 13
  coordinates: [  0.500000000000000,  0.000000000000000,  0.000000000000000 ]
  mass: 12.010700
- symbol: C # 14
  coordinates: [  0.518516666666667,  0.000000000000000,  0.000000000000000 ]
  mass: 12.010700
- symbol: C # 15
  coordinates: [  0.527777777777778,  0.250000000000000,  0.000000000000000 ]
  mass: 12.010700
- symbol: C # 16
  coordinates: [  0.546294444444444,  0.250000000000000,  0.000000000000000 ]
  mass: 12.010700
- symbol: C # 17
  coordinates: [  0.555555555555555,  0.000000000000000,  0.000000000000000 ]
  mass: 12.010700
- symbol: C # 18
  coordinates: [  0.574072222222222,  0.000000000000000,  0.000000000000000 ]
  mass: 12.010700
- symbol: C # 19
  coordinates: [  0.583333333333333,  0.250000000000000,  0.000000000000000 ]
  mass: 12.010700
- symbol: C # 20
  coordinates: [  0.601850000000000,  0.250000000000000,  0.000000000000000 ]
  mass: 12.010700
- symbol: C # 21
  coordinates: [  0.611111111111111,  0.000000000000000,  0.000000000000000 ]
  mass: 12.010700
- symbol: C # 22
  coordinates: [  0.629627777777778,  0.000000000000000,  0.000000000000000 ]
  mass: 12.010700
- symbol: C # 23
  coordinates: [  0.638888888888889,  0.250000000000000,  0.000000000000000 ]
  mass: 12.010700
- symbol: C # 24
  coordinates: [  0.657405555555555,  0.250000000000000,  0.000000000000000 ]
  mass: 12.010700
- symbol: C # 25
  coordinates: [  0.666666666666666,  0.000000000000000,  0.000000000000000 ]
  mass: 12.010700
- symbol: C # 26
  coordinates: [  0.333333333333333,  0.500000000000000,  0.000000000000000 ]
  mass: 12.010700
- symbol: C # 27
  coordinates: [  0.351850000000000,  0.500000000000000,  0.000000000000000 ]
  mass: 12.010700
- symbol: C # 28
  coordinates: [  0.361111111111111,  0.750000000000000,  0.000000000000000 ]
  mass: 12.010700
- symbol: C # 29
  coordinates: [  0.379627777777778,  0.750000000000000,  0.000000000000000 ]
  mass: 12.010700
- symbol: C # 30
  coordinates: [  0.388888888888889,  0.500000000000000,  0.000000000000000 ]
  mass: 12.010700
- symbol: C # 31
  coordinates: [  0.407405555555556,  0.500000000000000,  0.000000000000000 ]
  mass: 12.010700
- symbol: C # 32
  coordinates: [  0.416666666666667,  0.750000000000000,  0.000000000000000 ]
  mass: 12.010700
- symbol: C # 33
  coordinates: [  0.435183333333333,  0.750000000000000,  0.000000000000000 ]
  mass: 12.010700
- symbol: C # 34
  coordinates: [  0.444444444444444,  0.500000000000000,  0.000000000000000 ]
  mass: 12.010700
- symbol: C # 35
  coordinates: [  0.462961111111111,  0.500000000000000,  0.000000000000000 ]
  mass: 12.010700
- symbol: C # 36
  coordinates: [  0.472222222222222,  0.750000000000000,  0.000000000000000 ]
  mass: 12.010700
- symbol: C # 37
  coordinates: [  0.490738888888889,  0.750000000000000,  0.000000000000000 ]
  mass: 12.010700
- symbol: C # 38
  coordinates: [  0.500000000000000,  0.500000000000000,  0.000000000000000 ]
  mass: 12.010700
- symbol: C # 39
  coordinates: [  0.518516666666667,  0.500000000000000,  0.000000000000000 ]
  mass: 12.010700
- symbol: C # 40
  coordinates: [  0.527777777777778,  0.750000000000000,  0.000000000000000 ]
  mass: 12.010700
- symbol: C # 41
  coordinates: [  0.546294444444444,  0.750000000000000,  0.000000000000000 ]
  mass: 12.010700
- symbol: C # 42
  coordinates: [  0.555555555555555,  0.500000000000000,  0.000000000000000 ]
  mass: 12.010700
- symbol: C # 43
  coordinates: [  0.574072222222222,  0.500000000000000,  0.000000000000000 ]
  mass: 12.010700
- symbol: C # 44
  coordinates: [  0.583333333333333,  0.750000000000000,  0.000000000000000 ]
  mass: 12.010700
- symbol: C # 45
  coordinates: [  0.601850000000000,  0.750000000000000,  0.000000000000000 ]
  mass: 12.010700
- symbol: C # 46
  coordinates: [  0.611111111111111,  0.500000000000000,  0.000000000000000 ]
  mass: 12.010700
- symbol: C # 47
  coordinates: [  0.629627777777778,  0.500000000000000,  0.000000000000000 ]
  mass: 12.010700
- symbol: C # 48
  coordinates: [  0.638888888888889,  0.750000000000000,  0.000000000000000 ]
  mass: 12.010700
- symbol: C # 49
  coordinates: [  0.657405555555555,  0.750000000000000,  0.000000000000000 ]
  mass: 12.010700
- symbol: C # 50
  coordinates: [  0.666666666666666,  0.500000000000000,  0.000000000000000 ]
  mass: 12.010700

phonon:
- q-position: [    0.0000000,    0.0000000,    0.0000000 ]
  distance:    0.0000000
  band:
  - # 1
    frequency:   -0.8132515279
  - # 2
    frequency:   -0.7601297545
  - # 3
    frequency:   -0.4768561852
  - # 4
    frequency:    0.0027970494
  - # 5
    frequency:    0.0034386208
  - # 6
    frequency:    0.0055665275
  - # 7
    frequency:    1.0671996956
  - # 8
    frequency:    2.4212605099
  - # 9
    frequency:    2.8260944459
  - # 10
    frequency:    3.3547508255
  - # 11
    frequency:    3.8775055594
  - # 12
    frequency:    4.2233577511
  - # 13
    frequency:    5.4686703734
  - # 14
    frequency:    5.6115559483
  - # 15
    frequency:    7.1537282833
  - # 16
    frequency:    8.3157989883
  - # 17
    frequency:    8.3864986680
  - # 18
    frequency:    8.8578748205
  - # 19
    frequency:   10.4629668320
  - # 20
    frequency:   10.8941107826
  - # 21
    frequency:   11.1186433878
  - # 22
    frequency:   11.7839480222
  - # 23
    frequency:   11.9635180706
  - # 24
    frequency:   12.4228924151
  - # 25
    frequency:   12.5667602529
  - # 26
    frequency:   12.5667602529
  - # 27
    frequency:   12.5667602529
  - # 28
    frequency:   12.5667602529
  - # 29
    frequency:   12.5667602529
  - # 30
    frequency:   12.5667602529
  - # 31
    frequency:   12.5667602529
  - # 32
    frequency:   12.5667602529
  - # 33
    frequency:   12.5667602529
  - # 34
    frequency:   12.5667602529
  - # 35
    frequency:   12.5927277472
  - # 36
    frequency:   13.2998061194
  - # 37
    frequency:   14.5061215282
  - # 38
    frequency:   15.4945142225
  - # 39
    frequency:   16.2493382683
  - # 40
    frequency:   16.3824772569
  - # 41
    frequency:   17.4724067782
  - # 42
    frequency:   18.0512602284
  - # 43
    frequency:   19.2605445943
  - # 44
    frequency:   19.7718878698
  - # 45
    frequency:   20.8596744859
  - # 46
    frequency:   22.2149876896
  - # 47
    frequency:   22.4520592221
  - # 48
    frequency:   22.9840306643
  - # 49
    frequency:   23.0222451309
  - # 50
    frequency:   23.2508893035
  - # 51
    frequency:   23.9016540623
  - # 52
    frequency:   24.3926502133
  - # 53
    frequency:   24.4599091342
  - # 54
    frequency:   25.1783097030
  - # 55
    frequency:   25.3678879127
  - # 56
    frequency:   25.7754248502
  - # 57
    frequency:   26.0456144097
  - # 58
    frequency:   26.0456144097
  - # 59
    frequency:   26.0456144097
  - # 60
    frequency:   26.0456144097
  - # 61
    frequency:   26.0456144097
  - # 62
    frequency:   26.0456144097
  - # 63
    frequency:   26.0456144097
  - # 64
    frequency:   26.0456144097
  - # 65
    frequency:   26.0456144097
  - # 66
    frequency:   26.0456144097
  - # 67
    frequency:   26.0750455084
  - # 68
    frequency:   26.3338425304
  - # 69
    frequency:   26.3532601967
  - # 70
    frequency:   26.6480504175
  - # 71
    frequency:   27.2007905464
  - # 72
    frequency:   27.7379218046
  - # 73
    frequency:   28.0895678412
  - # 74
    frequency:   28.5282569550
  - # 75
    frequency:   29.0177482759
  - # 76
    frequency:   29.1740838174
  - # 77
    frequency:   29.2803486657
  - # 78
    frequency:   30.1048701349
  - # 79
    frequency:   31.7602908944
  - # 80
    frequency:   32.2147403266
  - # 81
    frequency:   33.3810901765
  - # 82
    frequency:   34.1569822154
  - # 83
    frequency:   34.2565721821
  - # 84
    frequency:   34.8917606484
  - # 85
    frequency:   35.1068485760
  - # 86
    frequency:   35.3992933533
  - # 87
    frequency:   35.5372875241
  - # 88
    frequency:   36.2397065560
  - # 89
    frequency:   37.1193635961
  - # 90
    frequency:   37.1754816234
  - # 91
    frequency:   37.3868684830
  - # 92
    frequency:   37.8007018259
  - # 93
    frequency:   38.3053187088
  - # 94
    frequency:   38.8117941060
  - # 95
    frequency:   38.9196468031
  - # 96
    frequency:   38.9749068027
  - # 97
    frequency:   39.3819521947
  - # 98
    frequency:   40.2772186538
  - # 99
    frequency:   40.3222043133
  - # 100
    frequency:   40.6192730032
  - # 101
    frequency:   41.6498967813
  - # 102
    frequency:   42.0778106196
  - # 103
    frequency:   42.6380901848
  - # 104
    frequency:   42.8958288110
  - # 105
    frequency:   43.3308742443
  - # 106
    frequency:   43.5919160488
  - # 107
    frequency:   44.0748544318
  - # 108
    frequency:   44.2123285082
  - # 109
    frequency:   44.4723220667
  - # 110
    frequency:   44.5321797865
  - # 111
    frequency:   44.5906601207
  - # 112
    frequency:   44.7816356175
  - # 113
    frequency:   44.8025976927
  - # 114
    frequency:   44.9039397406
  - # 115
    frequency:   44.9085687311
  - # 116
    frequency:   45.5922147099
  - # 117
    frequency:   46.2545561894
  - # 118
    frequency:   46.9389930669
  - # 119
    frequency:   47.7917971880
  - # 120
    frequency:   49.0995374395
  - # 121
    frequency:   49.8029723549
  - # 122
    frequency:   50.0178402963
  - # 123
    frequency:   50.1680797900
  - # 124
    frequency:   50.1823029315
  - # 125
    frequency:   50.1900564806
  - # 126
    frequency:   50.2037295286
  - # 127
    frequency:   50.4519606543
  - # 128
    frequency:   50.6414957338
  - # 129
    frequency:   50.6828818996
  - # 130
    frequency:   50.8049056106
  - # 131
    frequency:   51.0787158325
  - # 132
    frequency:   51.2015365634
  - # 133
    frequency:   51.2088329614
  - # 134
    frequency:   51.2278184165
  - # 135
    frequency:   51.6297508905
  - # 136
    frequency:   51.6900314145
  - # 137
    frequency:   51.7016560505
  - # 138
    frequency:   51.7836288857
  - # 139
    frequency:   52.0135623141
  - # 140
    frequency:   52.0163858768
  - # 141
    frequency:   52.0373504438
  - # 142
    frequency:   52.3243557648
  - # 143
    frequency:   52.4071858499
  - # 144
    frequency:   52.7202716300
  - # 145
    frequency:   52.7208325252
  - # 146
    frequency:   52.9649422156
  - # 147
    frequency:   52.9888423119
  - # 148
    frequency:   53.1289899113
  - # 149
    frequency:   53.1439797981
  - # 150
    frequency:   53.2724384681

- q-position: [    0.0000000,    0.0100000,    0.0000000 ]
  distance:    0.0020329
  band:
  - # 1
    frequency:   -0.8140625045
  - # 2
    frequency:   -0.7595866347
  - # 3
    frequency:   -0.4797435786
  - # 4
    frequency:   -0.0551700166
  - # 5
    frequency:   -0.0521539254
  - # 6
    frequency:    0.4487168847
  - # 7
    frequency:    1.0689304429
  - # 8
    frequency:    2.4227251861
  - # 9
    frequency:    2.8727861039
  - # 10
    frequency:    3.3541671823
  - # 11
    frequency:    3.8789051311
  - # 12
    frequency:    4.2110242256
  - # 13
    frequency:    5.4700302467
  - # 14
    frequency:    5.6425645242
  - # 15
    frequency:    7.1550658531
  - # 16
    frequency:    8.2342436084
  - # 17
    frequency:    8.4812673684
  - # 18
    frequency:    8.8592156403
  - # 19
    frequency:   10.4643471160
  - # 20
    frequency:   10.8955973020
  - # 21
    frequency:   11.1181524838
  - # 22
    frequency:   11.7854040775
  - # 23
    frequency:   11.9340106290
  - # 24
    frequency:   12.3633795994
  - # 25
    frequency:   12.3885674927
  - # 26
    frequency:   12.4281619219
  - # 27
    frequency:   12.4312586306
  - # 28
    frequency:   12.4788902036
  - # 29
    frequency:   12.5366518673
  - # 30
    frequency:   12.5941605864
  - # 31
    frequency:   12.5968329459
  - # 32
    frequency:   12.6546291490
  - # 33
    frequency:   12.7053905740
  - # 34
    frequency:   12.7449832932
  - # 35
    frequency:   12.7701415462
  - # 36
    frequency:   13.3041028847
  - # 37
    frequency:   14.5151797386
  - # 38
    frequency:   15.4991057844
  - # 39
    frequency:   16.2527537055
  - # 40
    frequency:   16.3813711637
  - # 41
    frequency:   17.4773099077
  - # 42
    frequency:   18.0498478182
  - # 43
    frequency:   19.2648130137
  - # 44
    frequency:   19.7739355997
  - # 45
    frequency:   20.8645934473
  - # 46
    frequency:   22.2192714241
  - # 47
    frequency:   22.4487462127
  - # 48
    frequency:   22.9852176024
  - # 49
    frequency:   23.0188732156
  - # 50
    frequency:   23.2554023582
  - # 51
    frequency:   23.9060442694
  - # 52
    frequency:   24.3866340983
  - # 53
    frequency:   24.4578965540
  - # 54
    frequency:   25.1680820893
  - # 55
    frequency:   25.3712094339
  - # 56
    frequency:   25.7348263434
  - # 57
    frequency:   25.8439515072
  - # 58
    frequency:   25.8723518486
  - # 59
    frequency:   25.9153469449
  - # 60
    frequency:   25.9684695290
  - # 61
    frequency:   26.0270373242
  - # 62
    frequency:   26.0754101563
  - # 63
    frequency:   26.0863498103
  - # 64
    frequency:   26.1419200756
  - # 65
    frequency:   26.1897200621
  - # 66
    frequency:   26.2263963609
  - # 67
    frequency:   26.2494380911
  - # 68
    frequency:   26.3321934977
  - # 69
    frequency:   26.3361271718
  - # 70
    frequency:   26.6588095417
  - # 71
    frequency:   27.1991976267
  - # 72
    frequency:   27.7058548632
  - # 73
    frequency:   28.1153071796
  - # 74
    frequency:   28.5267301368
  - # 75
    frequency:   28.9293577461
  - # 76
    frequency:   29.1739098884
  - # 77
    frequency:   29.3883644186
  - # 78
    frequency:   30.1033815101
  - # 79
    frequency:   31.7588086466
  - # 80
    frequency:   32.2141092082
  - # 81
    frequency:   33.3795917789
  - # 82
    frequency:   34.0850900562
  - # 83
    frequency:   34.3126994024
  - # 84
    frequency:   34.8902335625
  - # 85
    frequency:   35.1058225150
  - # 86
    frequency:   35.3679680654
  - # 87
    frequency:   35.5662041874
  - # 88
    frequency:   36.2381459797
  - # 89
    frequency:   37.0591804651
  - # 90
    frequency:   37.2326316071
  - # 91
    frequency:   37.3852750729
  - # 92
    frequency:   37.7993373559
  - # 93
    frequency:   38.3036968090
  - # 94
    frequency:   38.7547476158
  - # 95
    frequency:   38.9723670617
  - # 96
    frequency:   38.9732631485
  - # 97
    frequency:   39.3802949769
  - # 98
    frequency:   40.2755566546
  - # 99
    frequency:   40.2895943147
  - # 100
    frequency:   40.6439235516
  - # 101
    frequency:   41.6308539522
  - # 102
    frequency:   42.0805498573
  - # 103
    frequency:   42.6356284773
  - # 104
    frequency:   42.8915472351
  - # 105
    frequency:   43.2813143990
  - # 106
    frequency:   43.6324289463
  - # 107
    frequency:   43.9762158538
  - # 108
    frequency:   44.2876821254
  - # 109
    frequency:   44.4063608259
  - # 110
    frequency:   44.4705211752
  - # 111
    frequency:   44.5899777692
  - # 112
    frequency:   44.7028771789
  - # 113
    frequency:   44.7543247770
  - # 114
    frequency:   44.9853277895
  - # 115
    frequency:   45.1045104024
  - # 116
    frequency:   45.6153671653
  - # 117
    frequency:   46.2525977390
  - # 118
    frequency:   46.9427844513
  - # 119
    frequency:   47.7897917552
  - # 120
    frequency:   49.0974915816
  - # 121
    frequency:   49.8040958221
  - # 122
    frequency:   50.0202769959
  - # 123
    frequency:   50.1668916884
  - # 124
    frequency:   50.1773152720
  - # 125
    frequency:   50.1952018280
  - # 126
    frequency:   50.2071176251
  - # 127
    frequency:   50.4538120527
  - # 128
    frequency:   50.6354289208
  - # 129
    frequency:   50.6906671685
  - # 130
    frequency:   50.8066443981
  - # 131
    frequency:   51.0759069238
  - # 132
    frequency:   51.1895309761
  - # 133
    frequency:   51.2113573748
  - # 134
    frequency:   51.2410576678
  - # 135
    frequency:   51.6294228434
  - # 136
    frequency:   51.6720267250
  - # 137
    frequency:   51.7205701202
  - # 138
    frequency:   51.7834712331
  - # 139
    frequency:   51.9911877904
  - # 140
    frequency:   52.0373536802
  - # 141
    frequency:   52.0394838699
  - # 142
    frequency:   52.3236985594
  - # 143
    frequency:   52.4071226342
  - # 144
    frequency:   52.7180524176
  - # 145
    frequency:   52.7221975701
  - # 146
    frequency:   52.9644839668
  - # 147
    frequency:   52.9883941062
  - # 148
    frequency:   53.1285165381
  - # 149
    frequency:   53.1435266824
  - # 150
    frequency:   53.2719687483

- q-position: [    0.0000000,    0.0200000,    0.0000000 ]
  distance:    0.0040658
  band:
  - # 1
    frequency:   -0.8165002985
  - # 2
    frequency:   -0.7579211041
  - # 3
    frequency:   -0.4882737255
  - # 4
    frequency:   -0.1102135894
  - # 5
    frequency:    0.0959289140
  - # 6
    frequency:    0.8970952409
  - # 7
    frequency:    1.0741194229
  - # 8
    frequency:    2.4271186758
  - # 9
    frequency:    3.0050338629
  - # 10
    frequency:    3.3524157607
  - # 11
    frequency:    3.8831033397
  - # 12
    frequency:    4.1783849771
  - # 13
    frequency:    5.4741093131
  - # 14
    frequency:    5.7312114165
  - # 15
    frequency:    7.1590779550
  - # 16
    frequency:    8.1387505383
  - # 17
    frequency:    8.6163617838
  - # 18
    frequency:    8.8632374486
  - # 19
    frequency:   10.4684873101
  - # 20
    frequency:   10.9001558778
  - # 21
    frequency:   11.1166790939
  - # 22
    frequency:   11.7897716159
  - # 23
    frequency:   11.8506199934
  - # 24
    frequency:   12.1603356564
  - # 25
    frequency:   12.2112041177
  - # 26
    frequency:   12.2904103439
  - # 27
    frequency:   12.3912262670
  - # 28
    frequency:   12.4562325394
  - # 29
    frequency:   12.5057739586
  - # 30
    frequency:   12.5984597453
  - # 31
    frequency:   12.6253168390
  - # 32
    frequency:   12.7406050720
  - # 33
    frequency:   12.8424106683
  - # 34
    frequency:   12.9222467670
  - # 35
    frequency:   12.9731957531
  - # 36
    frequency:   13.3169734269
  - # 37
    frequency:   14.5422085115
  - # 38
    frequency:   15.5128561875
  - # 39
    frequency:   16.2630267132
  - # 40
    frequency:   16.3780508784
  - # 41
    frequency:   17.4919976349
  - # 42
    frequency:   18.0456109724
  - # 43
    frequency:   19.2775913383
  - # 44
    frequency:   19.7801201910
  - # 45
    frequency:   20.8793323057
  - # 46
    frequency:   22.2321004413
  - # 47
    frequency:   22.4388128814
  - # 48
    frequency:   22.9888124440
  - # 49
    frequency:   23.0087610335
  - # 50
    frequency:   23.2689239848
  - # 51
    frequency:   23.9192063995
  - # 52
    frequency:   24.3700355725
  - # 53
    frequency:   24.4500425716
  - # 54
    frequency:   25.1428911614
  - # 55
    frequency:   25.3746879716
  - # 56
    frequency:   25.6114754331
  - # 57
    frequency:   25.6520818144
  - # 58
    frequency:   25.7165310509
  - # 59
    frequency:   25.8061239874
  - # 60
    frequency:   25.9130181981
  - # 61
    frequency:   26.0285091290
  - # 62
    frequency:   26.0765096329
  - # 63
    frequency:   26.1437696853
  - # 64
    frequency:   26.2505155843
  - # 65
    frequency:   26.2977144205
  - # 66
    frequency:   26.3272468429
  - # 67
    frequency:   26.3414956828
  - # 68
    frequency:   26.4108214303
  - # 69
    frequency:   26.4541728195
  - # 70
    frequency:   26.6756729090
  - # 71
    frequency:   27.1944194549
  - # 72
    frequency:   27.6432644100
  - # 73
    frequency:   28.1461848032
  - # 74
    frequency:   28.5221503795
  - # 75
    frequency:   28.8168588841
  - # 76
    frequency:   29.1733913316
  - # 77
    frequency:   29.5762489808
  - # 78
    frequency:   30.0989163492
  - # 79
    frequency:   31.7543625808
  - # 80
    frequency:   32.2122180749
  - # 81
    frequency:   33.3750972104
  - # 82
    frequency:   33.9686815634
  - # 83
    frequency:   34.3792396435
  - # 84
    frequency:   34.8856528753
  - # 85
    frequency:   35.1027463965
  - # 86
    frequency:   35.3140238265
  - # 87
    frequency:   35.6142549880
  - # 88
    frequency:   36.2334647732
  - # 89
    frequency:   36.9816637510
  - # 90
    frequency:   37.3008019098
  - # 91
    frequency:   37.3804953250
  - # 92
    frequency:   37.7952465917
  - # 93
    frequency:   38.2988315604
  - # 94
    frequency:   38.6681187558
  - # 95
    frequency:   38.9683326142
  - # 96
    frequency:   39.0452391508
  - # 97
    frequency:   39.3753237379
  - # 98
    frequency:   40.2200999187
  - # 99
    frequency:   40.2705744329
  - # 100
    frequency:   40.6879245539
  - # 101
    frequency:   41.5875690234
  - # 102
    frequency:   42.0751413655
  - # 103
    frequency:   42.6282533182
  - # 104
    frequency:   42.8847776866
  - # 105
    frequency:   43.1780473434
  - # 106
    frequency:   43.6695239049
  - # 107
    frequency:   43.8783391444
  - # 108
    frequency:   44.1678615464
  - # 109
    frequency:   44.3847815617
  - # 110
    frequency:   44.4651263478
  - # 111
    frequency:   44.4875970311
  - # 112
    frequency:   44.5216015659
  - # 113
    frequency:   44.9319201646
  - # 114
    frequency:   45.1762024868
  - # 115
    frequency:   45.3005018077
  - # 116
    frequency:   45.6815242740
  - # 117
    frequency:   46.2467346736
  - # 118
    frequency:   46.9541400710
  - # 119
    frequency:   47.7837931645
  - # 120
    frequency:   49.0913838688
  - # 121
    frequency:   49.8074624617
  - # 122
    frequency:   50.0275591322
  - # 123
    frequency:   50.1645767692
  - # 124
    frequency:   50.1684110340
  - # 125
    frequency:   50.2046183488
  - # 126
    frequency:   50.2160175749
  - # 127
    frequency:   50.4593252053
  - # 128
    frequency:   50.6236985492
  - # 129
    frequency:   50.7075487761
  - # 130
    frequency:   50.8117998225
  - # 131
    frequency:   51.0680300830
  - # 132
    frequency:   51.1710208693
  - # 133
    frequency:   51.2183894303
  - # 134
    frequency:   51.2632655828
  - # 135
    frequency:   51.6284093359
  - # 136
    frequency:   51.6502719718
  - # 137
    frequency:   51.7450488338
  - # 138
    frequency:   51.7830299156
  - # 139
    frequency:   51.9682752027
  - # 140
    frequency:   52.0373516746
  - # 141
    frequency:   52.0645705735
  - # 142
    frequency:   52.3217453410
  - # 143
    frequency:   52.4069170216
  - # 144
    frequency:   52.7147253314
  - # 145
    frequency:   52.7229621476
  - # 146
    frequency:   52.9631083694
  - # 147
    frequency:   52.9870500705
  - # 148
    frequency:   53.1270958011
  - # 149
    frequency:   53.1421677063
  - # 150
    frequency:   53.2705589274

- q-position: [    0.0000000,    0.0300000,    0.0000000 ]
  distance:    0.0060988
  band:
  - # 1
    frequency:   -0.8205687759
  - # 2
    frequency:   -0.7550372631
  - # 3
    frequency:   -0.5020696032
  - # 4
    frequency:   -0.1647662499
  - # 5
    frequency:    0.2850066956
  - # 6
    frequency:    1.0827567205
  - # 7
    frequency:    1.3448952853
  - # 8
    frequency:    2.4344393561
  - # 9
    frequency:    3.2047815187
  - # 10
    frequency:    3.3494950849
  - # 11
    frequency:    3.8900986659
  - # 12
    frequency:    4.1355529105
  - # 13
    frequency:    5.4809059128
  - # 14
    frequency:    5.8673446394
  - # 15
    frequency:    7.1657627680
  - # 16
    frequency:    8.0557637554
  - # 17
    frequency:    8.7652257521
  - # 18
    frequency:    8.8699382927
  - # 19
    frequency:   10.4753854411
  - # 20
    frequency:   10.9080733489
  - # 21
    frequency:   11.1142211827
  - # 22
    frequency:   11.7253024662
  - # 23
    frequency:   11.7970487585
  - # 24
    frequency:   11.9579347112
  - # 25
    frequency:   12.0349500497
  - # 26
    frequency:   12.1530103405
  - # 27
    frequency:   12.3022628648
  - # 28
    frequency:   12.4718769169
  - # 29
    frequency:   12.4974511388
  - # 30
    frequency:   12.6056271391
  - # 31
    frequency:   12.6496877827
  - # 32
    frequency:   12.8223699516
  - # 33
    frequency:   12.9760897945
  - # 34
    frequency:   13.0975863108
  - # 35
    frequency:   13.1756128337
  - # 36
    frequency:   13.3383606256
  - # 37
    frequency:   14.5867764615
  - # 38
    frequency:   15.5356930959
  - # 39
    frequency:   16.2802359363
  - # 40
    frequency:   16.3725103778
  - # 41
    frequency:   17.5164059141
  - # 42
    frequency:   18.0385508457
  - # 43
    frequency:   19.2987964935
  - # 44
    frequency:   19.7905670693
  - # 45
    frequency:   20.9038378795
  - # 46
    frequency:   22.2534066691
  - # 47
    frequency:   22.4222763049
  - # 48
    frequency:   22.9919194084
  - # 49
    frequency:   22.9949152464
  - # 50
    frequency:   23.2914050413
  - # 51
    frequency:   23.9411152090
  - # 52
    frequency:   24.3454040911
  - # 53
    frequency:   24.4329146509
  - # 54
    frequency:   25.1120815539
  - # 55
    frequency:   25.3665174872
  - # 56
    frequency:   25.4251846520
  - # 57
    frequency:   25.4796673357
  - # 58
    frequency:   25.5785204202
  - # 59
    frequency:   25.7137720522
  - # 60
    frequency:   25.8733510100
  - # 61
    frequency:   26.0439494257
  - # 62
    frequency:   26.0783605907
  - # 63
    frequency:   26.2125401006
  - # 64
    frequency:   26.2585662483
  - # 65
    frequency:   26.3190038958
  - # 66
    frequency:   26.3673303859
  - # 67
    frequency:   26.4983191523
  - # 68
    frequency:   26.5975883021
  - # 69
    frequency:   26.6594371470
  - # 70
    frequency:   26.6720299384
  - # 71
    frequency:   27.1864577941
  - # 72
    frequency:   27.5936842495
  - # 73
    frequency:   28.1081915407
  - # 74
    frequency:   28.5145197761
  - # 75
    frequency:   28.7853564387
  - # 76
    frequency:   29.1725378602
  - # 77
    frequency:   29.7787571467
  - # 78
    frequency:   30.0914767936
  - # 79
    frequency:   31.7469547294
  - # 80
    frequency:   32.2090735989
  - # 81
    frequency:   33.3676083442
  - # 82
    frequency:   33.8397680944
  - # 83
    frequency:   34.4171328061
  - # 84
    frequency:   34.8780202985
  - # 85
    frequency:   35.0976264096
  - # 86
    frequency:   35.2715434124
  - # 87
    frequency:   35.6508770905
  - # 88
    frequency:   36.2256645043
  - # 89
    frequency:   36.9137864445
  - # 90
    frequency:   37.3521466828
  - # 91
    frequency:   37.3725306865
  - # 92
    frequency:   37.7884374542
  - # 93
    frequency:   38.2907243156
  - # 94
    frequency:   38.5892205315
  - # 95
    frequency:   38.9601164839
  - # 96
    frequency:   39.0985284038
  - # 97
    frequency:   39.3670397205
  - # 98
    frequency:   40.1500442969
  - # 99
    frequency:   40.2622832904
  - # 100
    frequency:   40.7111009818
  - # 101
    frequency:   41.5472765083
  - # 102
    frequency:   42.0396433939
  - # 103
    frequency:   42.6159944833
  - # 104
    frequency:   42.8738626817
  - # 105
    frequency:   43.0713670975
  - # 106
    frequency:   43.5666722976
  - # 107
    frequency:   43.8945139027
  - # 108
    frequency:   44.0165321184
  - # 109
    frequency:   44.1910403315
  - # 110
    frequency:   44.2921817252
  - # 111
    frequency:   44.4561608809
  - # 112
    frequency:   44.6671154363
  - # 113
    frequency:   45.1127692462
  - # 114
    frequency:   45.3649910701
  - # 115
    frequency:   45.4938172671
  - # 116
    frequency:   45.7825677840
  - # 117
    frequency:   46.2370033839
  - # 118
    frequency:   46.9730047875
  - # 119
    frequency:   47.7738536046
  - # 120
    frequency:   49.0813011819
  - # 121
    frequency:   49.8130610778
  - # 122
    frequency:   50.0395983682
  - # 123
    frequency:   50.1568106779
  - # 124
    frequency:   50.1629186991
  - # 125
    frequency:   50.2171993074
  - # 126
    frequency:   50.2286002089
  - # 127
    frequency:   50.4683791239
  - # 128
    frequency:   50.6117219655
  - # 129
    frequency:   50.7280966034
  - # 130
    frequency:   50.8201978007
  - # 131
    frequency:   51.0562844420
  - # 132
    frequency:   51.1528866525
  - # 133
    frequency:   51.2287575740
  - # 134