ITEM: TIMESTEP
0
ITEM: NUMBER OF ATOMS
1260
ITEM: BOX BOUNDS pp pp pp
0.0000000000000000e+00 2.5559999999999999e+01
0.0000000000000000e+00 3.4079999999999995e+02
0.0000000000000000e+00 2.8399999999999999e+00
ITEM: ATOMS id type x y z fx fy fz
1 1 8.52 0 0 -5.5341 -5.36815 0
6 1 9.93986 0 0 -116.975 85.0685 0
11 1 10.65 1.22976 0 -2.39138 9.19574 0
16 1 12.0699 1.22976 0 2.39138 9.19574 0
21 1 12.78 0 0 116.348 83.0459 0
26 1 14.1999 0 0 -116.348 83.0459 0
31 1 14.91 1.22976 0 -2.39138 9.19574 0
36 1 16.3299 1.22976 0 8.38469 8.64448 0
41 1 17.04 0 0 119.843 82.4125 0
46 1 8.52 2.45951 0 2.98704 3.01981e-14 0
51 1 9.93986 2.45951 0 -4.00285 -0.0920449 0
56 1 10.65 3.68927 0 -0.0098715 6.66134e-16 0
61 1 12.0699 3.68927 0 0.0098715 -1.22125e-15 0
66 1 12.78 2.45951 0 0.197626 -0.0920449 0
71 1 14.1999 2.45951 0 -0.197626 -0.0920449 0
76 1 14.91 3.68927 0 -0.0098715 1.9984e-15 0
81 1 16.3299 3.68927 0 8.16576 -1.55431e-15 0
86 1 17.04 2.45951 0 -7.14008 -0.0920449 0
91 1 8.52 4.91902 0 2.98704 -3.01981e-14 0
96 1 9.93986 4.91902 0 -3.79535 -1.09834e-12 0
101 1 10.65 6.14878 0 -0.0098715 1.12577e-12 0
106 1 12.0699 6.14878 0 0.0098715 1.17628e-12 0
111 1 12.78 4.91902 0 -0.0098715 -1.15197e-12 0
116 1 14.1999 4.91902 0 0.0098715 -1.17828e-12 0
121 1 14.91 6.14878 0 -0.0098715 1.18439e-12 0
126 1 16.3299 6.14878 0 8.16576 1.26799e-12 0
131 1 17.04 4.91902 0 -7.34758 -1.2399e-12 0
136 1 8.52 7.37854 0 2.98704 0 0
141 1 9.93986 7.37854 0 -3.79535 3.41949e-14 0
156 1 12.78 7.37854 0 -0.0098715 3.58602e-14 0
161 1 14.1999 7.37854 0 0.0098715 4.996e-14 0
176 1 17.04 7.37854 0 -7.34551 0.0313018 0.00246207
146 1 10.65 8.60829 0 -0.0098715 -1.19194e-12 0
181 1 8.52 9.83805 0 2.98704 3.08642e-14 0
186 1 9.93986 9.83805 0 -3.79535 1.15963e-12 0
151 1 12.0699 8.60829 0 0.0098715 -1.24789e-12 0
201 1 12.78 9.83805 0 -0.0098715 1.23634e-12 0
206 1 14.1999 9.83805 0 0.0098715 1.24167e-12 0
166 1 14.91 8.60829 0 -0.0361581 -0.0471966 0.00250298
171 1 16.3299 8.60829 0 8.09926 -0.0639628 -0.0131945
221 1 17.0301 9.83805 2.8389 -7.16617 1.32871e-12 0.016459
191 1 10.65 11.0678 0 -0.0098715 -8.88178e-15 0
226 1 8.52 12.2976 0 2.98704 -2.26485e-14 0
231 1 9.93986 12.2976 0 -3.79535 -1.15796e-12 0
196 1 12.0699 11.0678 0 0.0098715 -8.22675e-14 0
246 1 12.78 12.2976 0 -0.0098715 -1.16229e-12 0
251 1 14.1999 12.2976 0 0.0098715 -1.17417e-12 0
211 1 14.91 11.0678 0 -0.0361581 0.0471966 0.00250298
216 1 16.3299 11.0678 0 8.09926 0.0639628 -0.0131945
266 1 17.04 12.2976 0 -7.34551 -0.0313018 0.00246207
236 1 10.65 13.5273 0 -0.0098715 1.19127e-12 0
241 1 12.0699 13.5273 0 0.0098715 1.24489e-12 0
256 1 14.91 13.5273 0 -0.0098715 1.24956e-12 0
261 1 16.3299 13.5273 0 8.16576 1.32749e-12 0
271 1 8.52 14.7571 0 2.98704 -8.21565e-15 0
276 1 9.93986 14.7571 0 -3.79535 -5.32907e-15 0
281 1 10.65 15.9868 0 -0.0098715 -1.12255e-12 0
286 1 12.0699 15.9868 0 0.0098715 -1.10945e-12 0
291 1 12.78 14.7571 0 -0.0098715 -8.17124e-14 0
296 1 14.1999 14.7571 0 0.0098715 -7.12763e-14 0
301 1 14.91 15.9868 0 -0.0098715 -1.10945e-12 0
306 1 16.3299 15.9868 0 8.16576 -1.19982e-12 0
311 1 17.04 14.7571 0 -7.34758 -7.10543e-14 0
316 1 8.52 17.2166 0 2.98704 3.17524e-14 0
321 1 9.93986 17.2166 0 -3.79535 1.10623e-12 0
326 1 10.65 18.4463 0 -0.0098715 -4.86278e-14 0
331 1 12.0699 18.4463 0 0.0098715 -1.36224e-13 0
336 1 12.78 17.2166 0 -0.0098715 1.18106e-12 0
341 1 14.1999 17.2166 0 0.0098715 1.18283e-12 0
346 1 14.91 18.4463 0 -0.0098715 -1.29785e-13 0
351 1 16.3299 18.4463 0 8.16576 -1.34781e-13 0
356 1 17.04 17.2166 0 -7.34758 1.24345e-12 0
361 1 8.52 19.6761 0 2.98704 -2.19824e-14 0
366 1 9.93986 19.6761 0 -3.79535 -9.63118e-13 0
381 1 12.78 19.6761 0 -0.0098715 -9.75553e-13 0
386 1 14.1999 19.6761 0 0.0098715 -9.77329e-13 0
401 1 17.04 19.6761 0 -7.34758 -1.04305e-12 0
371 1 10.65 20.9059 0 -0.0098715 1.05471e-12 0
406 1 8.52 22.1356 0 2.98704 -9.10383e-15 0
411 1 9.93986 22.1356 0 -3.79535 6.07292e-14 0
376 1 12.0699 20.9059 0 0.0098715 1.13654e-12 0
426 1 12.78 22.1356 0 -0.0098715 -3.85247e-14 0
431 1 14.1999 22.1356 0 0.0098715 -2.44249e-14 0
391 1 14.91 20.9059 0 -0.0098715 1.12754e-12 0
396 1 16.3299 20.9059 0 8.16576 1.20659e-12 0
446 1 17.04 22.1356 0 -7.34758 -2.26485e-14 0
416 1 10.65 23.3654 0 -0.0098715 -8.03801e-14 0
451 1 8.52 24.5951 0 2.98704 -3.08642e-14 0
456 1 9.93986 24.5951 0 -3.79535 -1.16818e-12 0
421 1 12.0699 23.3654 0 0.0098715 2.66454e-14 0
471 1 12.78 24.5951 0 -0.0098715 -1.23523e-12 0
476 1 14.1999 24.5951 0 0.0098715 -1.24856e-12 0
436 1 14.91 23.3654 0 -0.0098715 3.9968e-15 0
441 1 16.3299 23.3654 0 8.16576 -1.46549e-14 0
491 1 17.04 24.5951 0 -7.34758 -1.31251e-12 0
461 1 10.65 25.8249 0 -0.0098715 1.13554e-12 0
466 1 12.0699 25.8249 0 0.0098715 1.10856e-12 0
481 1 14.91 25.8249 0 -0.0098715 1.11477e-12 0
486 1 16.3299 25.8249 0 8.16576 1.19948e-12 0
496 1 8.52 27.0546 0 2.98704 9.10383e-15 0
501 1 9.93986 27.0546 0 -3.79535 1.81744e-13 0
506 1 10.65 28.2844 0 -0.0098715 -1.29508e-12 0
511 1 12.0699 28.2844 0 0.0098715 -1.32605e-12 0
516 1 12.78 27.0546 0 -0.0098715 2.25375e-13 0
521 1 14.1999 27.0546 0 0.0098715 2.67009e-13 0
526 1 14.91 28.2844 0 -0.0098715 -1.3527e-12 0
531 1 16.3299 28.2844 0 8.16576 -1.45173e-12 0
536 1 17.04 27.0546 0 -7.34758 2.59348e-13 0
541 1 8.52 29.5141 0 2.98704 3.08642e-14 0
546 1 9.93986 29.5141 0 -3.79535 1.12754e-12 0
551 1 10.65 30.7439 0 -0.0098715 -5.35127e-14 0
556 1 12.0699 30.7439 0 0.0098715 -1.41331e-13 0
561 1 12.78 29.5141 0 -0.0098715 1.22014e-12 0
566 1 14.1999 29.5141 0 0.0098715 1.21125e-12 0
571 1 14.91 30.7439 0 -0.0098715 -1.40221e-13 0
576 1 16.3299 30.7439 0 8.16576 -1.44884e-13 0
581 1 17.04 29.5141 0 -7.34758 1.27542e-12 0
586 1 8.52 31.9737 0 2.98704 -2.19824e-14 0
591 1 9.93986 31.9737 0 -3.79535 -1.12022e-12 0
606 1 12.78 31.9737 0 -0.0098715 -1.11622e-12 0
611 1 14.1999 31.9737 0 0.0098715 -1.11888e-12 0
626 1 17.04 31.9737 0 -7.34758 -1.18283e-12 0
596 1 10.65 33.2034 0 -0.0098715 1.01541e-12 0
631 1 8.52 34.4332 0 2.98704 -2.19824e-14 0
636 1 9.93986 34.4332 0 -3.79535 -8.17346e-13 0
601 1 12.0699 33.2034 0 0.0098715 9.97091e-13 0
651 1 12.78 34.4332 0 -0.0098715 -8.45879e-13 0
656 1 14.1999 34.4332 0 0.0098715 -8.35332e-13 0
616 1 14.91 33.2034 0 -0.0098715 9.94538e-13 0
621 1 16.3299 33.2034 0 8.16576 1.05893e-12 0
671 1 17.04 34.4332 0 -7.34758 -9.02833e-13 0
641 1 10.65 35.6629 0 -0.0098715 1.1704e-12 0
676 1 8.52 36.8927 0 2.98704 -9.10383e-15 0
681 1 9.93986 36.8927 0 -3.79535 -1.76414e-13 0
646 1 12.0699 35.6629 0 0.0098715 1.20814e-12 0
696 1 12.78 36.8927 0 -0.0098715 -2.28262e-13 0
701 1 14.1999 36.8927 0 0.0098715 -2.69229e-13 0
661 1 14.91 35.6629 0 -0.0098715 1.24367e-12 0
666 1 16.3299 35.6629 0 8.16576 1.33116e-12 0
716 1 17.04 36.8927 0 -7.34758 -2.60347e-13 0
686 1 10.65 38.1224 0 -0.0098715 -1.01863e-12 0
691 1 12.0699 38.1224 0 0.0098715 -9.87876e-13 0
706 1 14.91 38.1224 0 -0.0098715 -1.01075e-12 0
711 1 16.3299 38.1224 0 8.16576 -1.1009e-12 0
721 1 8.52 39.3522 0 2.98704 2.19824e-14 0
726 1 9.93986 39.3522 0 -3.79535 9.60787e-13 0
731 1 10.65 40.582 0 -0.0098715 -2.44249e-15 0
736 1 12.0699 40.582 0 0.0098715 5.55112e-16 0
741 1 12.78 39.3522 0 -0.0098715 9.74332e-13 0
746 1 14.1999 39.3522 0 0.0098715 9.78329e-13 0
751 1 14.91 40.582 0 -0.0098715 -1.88738e-15 0
756 1 16.3299 40.582 0 8.16576 3.77476e-15 0
761 1 17.04 39.3522 0 -7.34758 1.0445e-12 0
766 1 8.52 41.8117 0 2.98704 -2.19824e-14 0
771 1 9.93986 41.8117 0 -3.79535 -9.29257e-13 0
776 1 10.65 43.0415 0 -0.0098715 1.1674e-12 0
781 1 12.0699 43.0415 0 0.0098715 1.20637e-12 0
786 1 12.78 41.8117 0 -0.0098715 -9.56568e-13 0
791 1 14.1999 41.8117 0 0.0098715 -9.49019e-13 0
796 1 14.91 43.0415 0 -0.0098715 1.24112e-12 0
801 1 16.3299 43.0415 0 8.16576 1.32583e-12 0
806 1 17.04 41.8117 0 -7.34758 -1.01252e-12 0
811 1 8.52 44.2712 0 2.98704 -9.10383e-15 0
816 1 9.93986 44.2712 0 -3.79535 -1.9762e-13 0
831 1 12.78 44.2712 0 -0.0098715 -2.60902e-13 0
836 1 14.1999 44.2712 0 0.0098715 -2.8455e-13 0
851 1 17.04 44.2712 0 -7.34758 -2.79221e-13 0
821 1 10.65 45.501 0 -0.0098715 -1.28342e-12 0
856 1 8.52 46.7307 0 2.98704 3.17524e-14 0
861 1 9.93986 46.7307 0 -3.79535 1.43741e-12 0
826 1 12.0699 45.501 0 0.0098715 -1.16895e-12 0
876 1 12.78 46.7307 0 -0.0098715 1.44484e-12 0
881 1 14.1999 46.7307 0 0.0098715 1.4958e-12 0
841 1 14.91 45.501 0 -0.0098715 -1.21836e-12 0
846 1 16.3299 45.501 0 8.16576 -1.33038e-12 0
896 1 17.04 46.7307 0 -7.34758 1.57929e-12 0
866 1 10.65 47.9605 0 -0.0098715 1.33671e-13 0
901 1 8.52 49.1902 0 2.98704 -9.10383e-15 0
906 1 9.93986 49.1902 0 -3.79535 -3.18412e-13 0
871 1 12.0699 47.9605 0 0.0098715 1.19238e-13 0
921 1 12.78 49.1902 0 -0.0098715 -3.95906e-13 0
926 1 14.1999 49.1902 0 0.0098715 -4.08895e-13 0
886 1 14.91 47.9605 0 -0.0098715 1.32339e-13 0
891 1 16.3299 47.9605 0 8.16576 1.58762e-13 0
941 1 17.04 49.1902 0 -7.34758 -4.0179e-13 0
911 1 10.65 50.42 0 -0.0098715 -1.29785e-12 0
916 1 12.0699 50.42 0 0.0098715 -1.20337e-12 0
931 1 14.91 50.42 0 -0.0098715 -1.23923e-12 0
936 1 16.3299 50.42 0 8.16576 -1.35569e-12 0
946 1 8.52 51.6498 0 2.98704 2.28706e-14 0
951 1 9.93986 51.6498 0 -3.79535 1.13454e-12 0
956 1 10.65 52.8795 0 -0.0098715 -7.14317e-13 0
961 1 12.0699 52.8795 0 0.0098715 -6.79901e-13 0
966 1 12.78 51.6498 0 -0.0098715 1.08691e-12 0
971 1 14.1999 51.6498 0 0.0098715 1.10034e-12 0
976 1 14.91 52.8795 0 -0.0098715 -6.91225e-13 0
981 1 16.3299 52.8795 0 8.16576 -7.33635e-13 0
986 1 17.04 51.6498 0 -7.34758 1.19726e-12 0
991 1 8.52 54.1093 0 2.98704 5.44009e-14 0
996 1 9.93986 54.1093 0 -3.79535 2.23133e-12 0
1001 1 10.65 55.339 0 -0.0098715 -2.58038e-12 0
1006 1 12.0699 55.339 0 0.0098715 -2.53919e-12 0
1011 1 12.78 54.1093 0 -0.0098715 2.29905e-12 0
1016 1 14.1999 54.1093 0 0.0098715 2.29561e-12 0
1021 1 14.91 55.339 0 -0.0098715 -2.55729e-12 0
1026 1 16.3299 55.339 0 8.16576 -2.77323e-12 0
1031 1 17.04 54.1093 0 -7.34758 2.45137e-12 0
1036 1 8.52 56.5688 0 2.98704 2.28706e-14 0
1041 1 9.93986 56.5688 0 -3.79535 9.76441e-13 0
1056 1 12.78 56.5688 0 -0.0098715 9.35252e-13 0
1061 1 14.1999 56.5688 0 0.0098715 9.44023e-13 0
1076 1 17.04 56.5688 0 -7.34758 1.03639e-12 0
1046 1 10.65 57.7985 0 -0.0098715 -8.30669e-13 0
1081 1 8.52 59.0283 0 2.98704 3.06422e-14 0
1086 1 9.93986 59.0283 0 -3.79535 9.87987e-13 0
1051 1 12.0699 57.7985 0 0.0098715 -8.17568e-13 0
1101 1 12.78 59.0283 0 -0.0098715 1.04439e-12 0
1106 1 14.1999 59.0283 0 0.0098715 1.09013e-12 0
1066 1 14.91 57.7985 0 -0.0098715 -8.22897e-13 0
1071 1 16.3299 57.7985 0 8.16576 -8.81739e-13 0
1121 1 17.04 59.0283 0 -7.34758 1.15763e-12 0
1091 1 10.65 60.258 0 -0.0098715 -1.53144e-12 0
1126 1 8.52 61.4878 0 2.98704 4.08562e-14 0
1131 1 9.93986 61.4878 0 -3.79535 1.60794e-12 0
1096 1 12.0699 60.258 0 0.0098715 -1.55764e-12 0
1146 1 12.78 61.4878 0 -0.0098715 1.68643e-12 0
1151 1 14.1999 61.4878 0 0.0098715 1.7214e-12 0
1111 1 14.91 60.258 0 -0.0098715 -1.59517e-12 0
1116 1 16.3299 60.258 0 8.16576 -1.71507e-12 0
1166 1 17.04 61.4878 0 -7.34758 1.80667e-12 0
1136 1 10.65 62.7176 0 -0.0098715 1.51323e-13 0
1141 1 12.0699 62.7176 0 0.0098715 1.4766e-13 0
1156 1 14.91 62.7176 0 -0.0098715 1.50435e-13 0
1161 1 16.3299 62.7176 0 8.16576 1.87184e-13 0
1171 1 8.52 63.9473 0 2.98704 -9.10383e-15 0
1176 1 9.93986 63.9473 0 -3.79535 -1.62981e-13 0
1181 1 10.65 65.1771 0 0.197626 0.0920449 0
1186 1 12.0699 65.1771 0 -0.197626 0.0920449 0
1191 1 12.78 63.9473 0 -0.0098715 -2.46692e-13 0
1196 1 14.1999 63.9473 0 0.0098715 -2.5735e-13 0
1201 1 14.91 65.1771 0 0.197626 0.0920449 0
1206 1 16.3299 65.1771 0 6.7959 0.750909 0
1211 1 17.04 63.9473 0 -7.34758 -2.4869e-13 0
1216 1 8.52 66.4068 0 -5.99175 5.58016 0
1221 1 9.93986 66.4068 0 1.30699 -11.4304 0
1226 1 10.65 67.6366 0 116.348 -83.0459 0
1231 1 12.0699 67.6366 0 -116.348 -83.0459 0
1236 1 12.78 66.4068 0 -2.39138 -9.19574 0
1241 1 14.1999 66.4068 0 2.39138 -9.19574 0
1246 1 14.91 67.6366 0 116.348 -83.0459 0
1251 1 16.3299 67.6366 0 -114.521 -83.1552 0
1256 1 17.04 66.4068 0 0.69309 -8.56058 0
2 1 8.52 68.16 0 -5.5341 -5.36815 0
7 1 9.93986 68.16 0 -116.975 85.0685 0
12 1 10.65 69.3898 0 -2.39138 9.19574 0
17 1 12.0699 69.3898 0 2.39138 9.19574 0
22 1 12.78 68.16 0 116.348 83.0459 0
27 1 14.1999 68.16 0 -116.348 83.0459 0
32 1 14.91 69.3898 0 -2.39138 9.19574 0
37 1 16.3299 69.3898 0 8.38469 8.64448 0
42 1 17.04 68.16 0 119.843 82.4125 0
47 1 8.52 70.6195 0 2.98704 3.17524e-14 0
52 1 9.93986 70.6195 0 -4.00285 -0.0920449 0
57 1 10.65 71.8493 0 -0.0098715 1.53211e-13 0
62 1 12.0699 71.8493 0 0.0098715 1.4988e-13 0
67 1 12.78 70.6195 0 0.197626 -0.0920449 0
72 1 14.1999 70.6195 0 -0.197626 -0.0920449 0
77 1 14.91 71.8493 0 -0.0098715 1.50213e-13 0
82 1 16.3299 71.8493 0 8.16576 1.86073e-13 0
87 1 17.04 70.6195 0 -7.14008 -0.0920449 0
92 1 8.52 73.079 0 2.98704 0 0
97 1 9.93986 73.079 0 -3.79535 -1.51212e-13 0
112 1 12.78 73.079 0 -0.0098715 -1.52212e-13 0
117 1 14.1999 73.079 0 0.0098715 -1.56763e-13 0
132 1 17.04 73.079 0 -7.34758 -1.56763e-13 0
102 1 10.65 74.3088 0 -0.0098715 -1.45595e-12 0
137 1 8.52 75.5385 0 2.98704 3.17524e-14 0
142 1 9.93986 75.5385 0 -3.79535 1.26632e-12 0
107 1 12.0699 74.3088 0 0.0098715 -1.41231e-12 0
157 1 12.78 75.5385 0 -0.0098715 1.25999e-12 0
162 1 14.1999 75.5385 0 0.0098715 1.32472e-12 0
122 1 14.91 74.3088 0 -0.0098715 -1.4706e-12 0
127 1 16.3299 74.3088 0 8.16576 -1.59328e-12 0
177 1 17.04 75.5385 0 -7.34758 1.40821e-12 0
147 1 10.65 76.7683 0 -0.0098715 -1.30673e-12 0
182 1 8.52 77.998 0 2.98704 3.17524e-14 0
187 1 9.93986 77.998 0 -3.79535 1.36768e-12 0
152 1 12.0699 76.7683 0 0.0098715 -1.25955e-12 0
202 1 12.78 77.998 0 -0.0098715 1.36136e-12 0
207 1 14.1999 77.998 0 0.0098715 1.42819e-12 0
167 1 14.91 76.7683 0 -0.0098715 -1.31783e-12 0
172 1 16.3299 76.7683 0 8.16576 -1.41209e-12 0
222 1 17.04 77.998 0 -7.34758 1.51168e-12 0
192 1 10.65 79.2278 0 -0.0098715 -4.96048e-13 0
197 1 12.0699 79.2278 0 0.0098715 -4.83613e-13 0
212 1 14.91 79.2278 0 -0.0098715 -4.93605e-13 0
217 1 16.3299 79.2278 0 8.16576 -5.31131e-13 0
227 1 8.52 80.4576 0 2.98704 -2.24265e-14 0
232 1 9.93986 80.4576 0 -3.79535 -8.85625e-13 0
237 1 10.65 81.6873 0 -0.0098715 1.94078e-12 0
242 1 12.0699 81.6873 0 0.0098715 1.88682e-12 0
247 1 12.78 80.4576 0 -0.0098715 -8.78853e-13 0
252 1 14.1999 80.4576 0 0.0098715 -9.29368e-13 0
257 1 14.91 81.6873 0 -0.0098715 1.95455e-12 0
262 1 16.3299 81.6873 0 8.16576 2.10965e-12 0
267 1 17.04 80.4576 0 -7.34758 -9.91207e-13 0
272 1 8.52 82.9171 0 2.98704 -2.15383e-14 0
277 1 9.93986 82.9171 0 -3.79535 -9.15712e-13 0
282 1 10.65 84.1468 0 -0.0098715 -5.30687e-13 0
287 1 12.0699 84.1468 0 0.0098715 -5.1914e-13 0
292 1 12.78 82.9171 0 -0.0098715 -9.05942e-13 0
297 1 14.1999 82.9171 0 0.0098715 -9.17266e-13 0
302 1 14.91 84.1468 0 -0.0098715 -5.55112e-13 0
307 1 16.3299 84.1468 0 8.16576 -5.94413e-13 0
312 1 17.04 82.9171 0 -7.34758 -9.87654e-13 0
317 1 8.52 85.3766 0 2.98704 1.9762e-14 0
322 1 9.93986 85.3766 0 -3.79535 9.44911e-13 0
337 1 12.78 85.3766 0 -0.0098715 9.68781e-13 0
342 1 14.1999 85.3766 0 0.0098715 9.87654e-13 0
357 1 17.04 85.3766 0 -7.34758 1.0516e-12 0
327 1 10.65 86.6063 0 -0.0098715 -3.95461e-13 0
362 1 8.52 87.8361 0 2.98704 8.88178e-15 0
367 1 9.93986 87.8361 0 -3.79535 3.33733e-13 0
332 1 12.0699 86.6063 0 0.0098715 -3.82361e-13 0
382 1 12.78 87.8361 0 -0.0098715 3.38063e-13 0
387 1 14.1999 87.8361 0 0.0098715 3.3884e-13 0
347 1 14.91 86.6063 0 -0.0098715 -3.91243e-13 0
352 1 16.3299 86.6063 0 8.16576 -4.0945e-13 0
402 1 17.04 87.8361 0 -7.34758 3.61933e-13 0
372 1 10.65 89.0659 0 -0.0098715 -1.45461e-12 0
407 1 8.52 90.2956 0 2.98704 2.24265e-14 0
412 1 9.93986 90.2956 0 -3.79535 9.31255e-13 0
377 1 12.0699 89.0659 0 0.0098715 -1.4142e-12 0
427 1 12.78 90.2956 0 -0.0098715 9.34253e-13 0
432 1 14.1999 90.2956 0 0.0098715 9.84213e-13 0
392 1 14.91 89.0659 0 -0.0098715 -1.46949e-12 0
397 1 16.3299 89.0659 0 8.16576 -1.59295e-12 0
447 1 17.04 90.2956 0 -7.34758 1.04283e-12 0
417 1 10.65 91.5254 0 -0.0098715 4.93494e-13 0
422 1 12.0699 91.5254 0 0.0098715 4.8539e-13 0
437 1 14.91 91.5254 0 -0.0098715 4.90608e-13 0
442 1 16.3299 91.5254 0 8.16576 5.40457e-13 0
452 1 8.52 92.7551 0 2.98704 -3.17524e-14 0
457 1 9.93986 92.7551 0 -3.79535 -1.36513e-12 0
462 1 10.65 93.9849 0 -0.0098715 1.40854e-12 0
467 1 12.0699 93.9849 0 0.0098715 1.36136e-12 0
472 1 12.78 92.7551 0 -0.0098715 -1.36224e-12 0
477 1 14.1999 92.7551 0 0.0098715 -1.42342e-12 0
482 1 14.91 93.9849 0 -0.0098715 1.42186e-12 0
487 1 16.3299 93.9849 0 8.16576 1.52722e-12 0
492 1 17.04 92.7551 0 -7.34758 -1.50635e-12 0
497 1 8.52 95.2146 0 2.98704 -8.88178e-15 0
502 1 9.93986 95.2146 0 -3.79535 -4.37872e-13 0
507 1 10.65 96.4444 0 -0.0098715 -4.79172e-13 0
512 1 12.0699 96.4444 0 0.0098715 -4.72955e-13 0
517 1 12.78 95.2146 0 -0.0098715 -4.36984e-13 0
522 1 14.1999 95.2146 0 0.0098715 -4.44755e-13 0
527 1 14.91 96.4444 0 -0.0098715 -4.91163e-13 0
532 1 16.3299 96.4444 0 8.16576 -5.32241e-13 0
537 1 17.04 95.2146 0 -7.34758 -4.65405e-13 0
542 1 8.52 97.6741 0 2.98704 1.9762e-14 0
547 1 9.93986 97.6741 0 -3.79535 9.95093e-13 0
562 1 12.78 97.6741 0 -0.0098715 1.02029e-12 0
567 1 14.1999 97.6741 0 0.0098715 1.03573e-12 0
582 1 17.04 97.6741 0 -7.34758 1.09968e-12 0
552 1 10.65 98.9039 0 -0.0098715 5.32907e-14 0
587 1 8.52 100.134 0 2.98704 -8.88178e-15 0
592 1 9.93986 100.134 0 -3.79535 -6.41376e-13 0
557 1 12.0699 98.9039 0 0.0098715 4.68514e-14 0
607 1 12.78 100.134 0 -0.0098715 -6.46594e-13 0
612 1 14.1999 100.134 0 0.0098715 -6.45484e-13 0
572 1 14.91 98.9039 0 -0.0098715 5.15143e-14 0
577 1 16.3299 98.9039 0 8.16576 6.35048e-14 0
627 1 17.04 100.134 0 -7.34758 -6.72129e-13 0
597 1 10.65 101.363 0 -0.0098715 -1.11178e-12 0
632 1 8.52 102.593 0 2.98704 0 0
637 1 9.93986 102.593 0 -3.79535 4.52971e-14 0
602 1 12.0699 101.363 0 0.0098715 -1.08391e-12 0
652 1 12.78 102.593 0 -0.0098715 5.52891e-14 0
657 1 14.1999 102.593 0 0.0098715 4.38538e-14 0
617 1 14.91 101.363 0 -0.0098715 -1.1211e-12 0
622 1 16.3299 101.363 0 8.16576 -1.23224e-12 0
672 1 17.04 102.593 0 -7.34758 4.91829e-14 0
642 1 10.65 103.823 0 -0.0098715 1.65756e-12 0
647 1 12.0699 103.823 0 0.0098715 1.61693e-12 0
662 1 14.91 103.823 0 -0.0098715 1.68265e-12 0
667 1 16.3299 103.823 0 8.16576 1.83653e-12 0
677 1 8.52 105.053 0 2.98704 1.24345e-14 0
682 1 9.93986 105.053 0 -3.79535 5.80092e-13 0
687 1 10.65 106.282 0 -0.0098715 -9.87321e-13 0
692 1 12.0699 106.282 0 0.0098715 -9.52571e-13 0
697 1 12.78 105.053 0 -0.0098715 5.74873e-13 0
702 1 14.1999 105.053 0 0.0098715 5.96634e-13 0
707 1 14.91 106.282 0 -0.0098715 -9.81437e-13 0
712 1 16.3299 106.282 0 8.16576 -1.04716e-12 0
717 1 17.04 105.053 0 -7.34758 6.14619e-13 0
722 1 8.52 107.512 0 2.98704 8.88178e-15 0
727 1 9.93986 107.512 0 -3.79535 2.83995e-13 0
732 1 10.65 108.742 0 -0.0098715 -1.5562e-12 0
737 1 12.0699 108.742 0 0.0098715 -1.51557e-12 0
742 1 12.78 107.512 0 -0.0098715 2.84217e-13 0
747 1 14.1999 107.512 0 0.0098715 2.74891e-13 0
752 1 14.91 108.742 0 -0.0098715 -1.57063e-12 0
757 1 16.3299 108.742 0 8.16576 -1.71008e-12 0
762 1 17.04 107.512 0 -7.34758 3.01981e-13 0
767 1 8.52 109.972 0 2.98704 0 0
772 1 9.93986 109.972 0 -3.79535 -8.88178e-16 0
787 1 12.78 109.972 0 -0.0098715 5.55112e-15 0
792 1 14.1999 109.972 0 0.0098715 -4.10783e-15 0
807 1 17.04 109.972 0 -7.34758 -5.55112e-16 0
777 1 10.65 111.201 0 -0.0098715 1.55786e-12 0
812 1 8.52 112.431 0 2.98704 -8.88178e-15 0
817 1 9.93986 112.431 0 -3.79535 -3.33511e-13 0
782 1 12.0699 111.201 0 0.0098715 1.51767e-12 0
832 1 12.78 112.431 0 -0.0098715 -3.41172e-13 0
837 1 14.1999 112.431 0 0.0098715 -3.37397e-13 0
797 1 14.91 111.201 0 -0.0098715 1.5683e-12 0
802 1 16.3299 111.201 0 8.16576 1.70841e-12 0
852 1 17.04 112.431 0 -7.34758 -3.65818e-13 0
822 1 10.65 113.661 0 -0.0098715 3.9746e-13 0
857 1 8.52 114.891 0 2.98704 -1.9762e-14 0
862 1 9.93986 114.891 0 -3.79535 -8.96616e-13 0
827 1 12.0699 113.661 0 0.0098715 3.87468e-13 0
877 1 12.78 114.891 0 -0.0098715 -9.1438e-13 0
882 1 14.1999 114.891 0 0.0098715 -9.39582e-13 0
842 1 14.91 113.661 0 -0.0098715 3.91465e-13 0
847 1 16.3299 113.661 0 8.16576 4.17111e-13 0
897 1 17.04 114.891 0 -7.34758 -1.00886e-12 0
867 1 10.65 116.12 0 -0.0098715 9.27147e-13 0
872 1 12.0699 116.12 0 0.0098715 9.04832e-13 0
887 1 14.91 116.12 0 -0.0098715 9.4047e-13 0
892 1 16.3299 116.12 0 8.16576 9.97868e-13 0
902 1 8.52 117.35 0 2.98704 -8.88178e-15 0
907 1 9.93986 117.35 0 -3.79535 -5.34794e-13 0
912 1 10.65 118.58 0 -0.0098715 -9.64007e-13 0
917 1 12.0699 118.58 0 0.0098715 -9.2204e-13 0
922 1 12.78 117.35 0 -0.0098715 -5.32907e-13 0
927 1 14.1999 117.35 0 0.0098715 -5.46008e-13 0
932 1 14.91 118.58 0 -0.0098715 -9.78551e-13 0
937 1 16.3299 118.58 0 8.16576 -1.05504e-12 0
942 1 17.04 117.35 0 -7.34758 -5.68434e-13 0
947 1 8.52 119.81 0 2.98704 3.17524e-14 0
952 1 9.93986 119.81 0 -3.79535 1.31428e-12 0
957 1 10.65 121.04 0 -0.0098715 -1.35525e-12 0
962 1 12.0699 121.04 0 0.0098715 -1.31117e-12 0
967 1 12.78 119.81 0 -0.0098715 1.31251e-12 0
972 1 14.1999 119.81 0 0.0098715 1.3709e-12 0
977 1 14.91 121.04 0 -0.0098715 -1.36735e-12 0
982 1 16.3299 121.04 0 8.16576 -1.47216e-12 0
987 1 17.04 119.81 0 -7.34758 1.46017e-12 0
992 1 8.52 122.269 0 2.98704 2.24265e-14 0
997 1 9.93986 122.269 0 -3.79535 9.34808e-13 0
1012 1 12.78 122.269 0 -0.0098715 9.34253e-13 0
1017 1 14.1999 122.269 0 0.0098715 9.82436e-13 0
1032 1 17.04 122.269 0 -7.34758 1.04283e-12 0
1002 1 10.65 123.499 0 -0.0098715 6.50147e-13 0
1037 1 8.52 124.729 0 2.98704 0 0
1042 1 9.93986 124.729 0 -3.79535 1.66533e-15 0
1007 1 12.0699 123.499 0 0.0098715 6.38378e-13 0
1057 1 12.78 124.729 0 -0.0098715 -1.11022e-15 0
1062 1 14.1999 124.729 0 0.0098715 -1.77636e-15 0
1022 1 14.91 123.499 0 -0.0098715 6.43485e-13 0
1027 1 16.3299 123.499 0 8.16576 7.22533e-13 0
1077 1 17.04 124.729 0 -7.34758 -3.55271e-15 0
1047 1 10.65 125.959 0 -0.0098715 -5.97522e-13 0
1082 1 8.52 127.188 0 2.98704 -1.04361e-14 0
1087 1 9.93986 127.188 0 -3.79535 -5.60774e-13 0
1052 1 12.0699 125.959 0 0.0098715 -5.84643e-13 0
1102 1 12.78 127.188 0 -0.0098715 -5.8753e-13 0
1107 1 14.1999 127.188 0 0.0098715 -5.9186e-13 0
1067 1 14.91 125.959 0 -0.0098715 -5.95302e-13 0
1072 1 16.3299 125.959 0 8.16576 -6.52145e-13 0
1122 1 17.04 127.188 0 -7.34758 -6.25611e-13 0
1092 1 10.65 128.418 0 -0.0098715 4.84057e-14 0
1097 1 12.0699 128.418 0 0.0098715 4.92939e-14 0
1112 1 14.91 128.418 0 -0.0098715 4.88498e-14 0
1117 1 16.3299 128.418 0 8.16576 5.57332e-14 0
1127 1 8.52 129.648 0 2.98704 1.9762e-14 0
1132 1 9.93986 129.648 0 -3.79535 8.41216e-13 0
1137 1 10.65 130.878 0 -0.0098715 -1.82954e-12 0
1142 1 12.0699 130.878 0 0.0098715 -1.79123e-12 0
1147 1 12.78 129.648 0 -0.0098715 8.58202e-13 0
1152 1 14.1999 129.648 0 0.0098715 8.82405e-13 0
1157 1 14.91 130.878 0 -0.0098715 -1.85063e-12 0
1162 1 16.3299 130.878 0 8.16576 -2.0004e-12 0
1167 1 17.04 129.648 0 -7.34758 9.45022e-13 0
1172 1 8.52 132.107 0 2.98704 4.17444e-14 0
1177 1 9.93986 132.107 0 -3.79535 1.99274e-12 0
1182 1 10.65 133.337 0 0.197626 0.0920449 0
1187 1 12.0699 133.337 0 -0.197626 0.0920449 0
1192 1 12.78 132.107 0 -0.0098715 2.00218e-12 0
1197 1 14.1999 132.107 0 0.0098715 2.08333e-12 0
1202 1 14.91 133.337 0 0.197626 0.0920449 0
1207 1 16.3299 133.337 0 6.7959 0.750909 0
1212 1 17.04 132.107 0 -7.34758 2.20268e-12 0
1217 1 8.52 134.567 0 -5.99175 5.58016 0
1222 1 9.93986 134.567 0 1.30699 -11.4304 0
1237 1 12.78 134.567 0 -2.39138 -9.19574 0
1242 1 14.1999 134.567 0 2.39138 -9.19574 0
1257 1 17.04 134.567 0 0.69309 -8.56058 0
3 1 8.52 136.32 0 -5.5341 -5.36815 0
8 1 9.93986 136.32 0 -116.975 85.0685 0
13 1 10.65 137.55 0 -2.39138 9.19574 0
1227 1 10.65 135.797 0 116.348 -83.0459 0
18 1 12.0699 137.55 0 2.39138 9.19574 0
1232 1 12.0699 135.797 0 -116.348 -83.0459 0
23 1 12.78 136.32 0 116.348 83.0459 0
28 1 14.1999 136.32 0 -116.348 83.0459 0
33 1 14.91 137.55 0 -2.39138 9.19574 0
38 1 16.3299 137.55 0 8.38469 8.64448 0
1247 1 14.91 135.797 0 116.348 -83.0459 0
1252 1 16.3299 135.797 0 -114.521 -83.1552 0
43 1 17.04 136.32 0 119.843 82.4125 0
48 1 8.52 138.78 0 2.98704 1.9762e-14 0
53 1 9.93986 138.78 0 -4.00285 -0.0920449 0
68 1 12.78 138.78 0 0.197626 -0.0920449 0
73 1 14.1999 138.78 0 -0.197626 -0.0920449 0
88 1 17.04 138.78 0 -7.14008 -0.0920449 0
58 1 10.65 140.009 0 -0.0098715 -1.07714e-12 0
93 1 8.52 141.239 0 2.98704 -2.19824e-14 0
98 1 9.93986 141.239 0 -3.79535 -9.40803e-13 0
63 1 12.0699 140.009 0 0.0098715 -1.04527e-12 0
113 1 12.78 141.239 0 -0.0098715 -9.38249e-13 0
118 1 14.1999 141.239 0 0.0098715 -9.81104e-13 0
78 1 14.91 140.009 0 -0.0098715 -1.08336e-12 0
83 1 16.3299 140.009 0 8.16576 -1.18128e-12 0
133 1 17.04 141.239 0 -7.34758 -1.03972e-12 0
103 1 10.65 142.469 0 -0.0098715 2.03637e-12 0
138 1 8.52 143.699 0 2.98704 0 0
143 1 9.93986 143.699 0 -3.79535 1.02918e-13 0
108 1 12.0699 142.469 0 0.0098715 2.0044e-12 0
158 1 12.78 143.699 0 -0.0098715 9.63674e-14 0
163 1 14.1999 143.699 0 0.0098715 9.90319e-14 0
123 1 14.91 142.469 0 -0.0098715 2.05458e-12 0
128 1 16.3299 142.469 0 8.16576 2.24665e-12 0
178 1 17.04 143.699 0 -7.34758 9.54792e-14 0
148 1 10.65 144.928 0 -0.0098715 -9.76552e-13 0
153 1 12.0699 144.928 0 0.0098715 -9.4369e-13 0
168 1 14.91 144.928 0 -0.0098715 -9.92095e-13 0
173 1 16.3299 144.928 0 8.16576 -1.06337e-12 0
183 1 8.52 146.158 0 2.98704 1.9762e-14 0
188 1 9.93986 146.158 0 -3.79535 9.43579e-13 0
193 1 10.65 147.388 0 -0.0098715 1.66533e-15 0
198 1 12.0699 147.388 0 0.0098715 -3.33067e-15 0
203 1 12.78 146.158 0 -0.0098715 9.61231e-13 0
208 1 14.1999 146.158 0 0.0098715 9.87765e-13 0
213 1 14.91 147.388 0 -0.0098715 -1.44329e-15 0
218 1 16.3299 147.388 0 8.16576 4.996e-15 0
223 1 17.04 146.158 0 -7.34758 1.05516e-12 0
228 1 8.52 148.618 0 2.98704 -1.9762e-14 0
233 1 9.93986 148.618 0 -3.79535 -9.46354e-13 0
238 1 10.65 149.847 0 -0.0098715 8.75633e-13 0
243 1 12.0699 149.847 0 0.0098715 8.56426e-13 0
248 1 12.78 148.618 0 -0.0098715 -9.64784e-13 0
253 1 14.1999 148.618 0 0.0098715 -9.8932e-13 0
258 1 14.91 149.847 0 -0.0098715 8.88511e-13 0
263 1 16.3299 149.847 0 8.16576 9.51794e-13 0
268 1 17.04 148.618 0 -7.34758 -1.05871e-12 0
273 1 8.52 151.077 0 2.98704 -1.9762e-14 0
278 1 9.93986 151.077 0 -3.79535 -1.0465e-12 0
293 1 12.78 151.077 0 -0.0098715 -1.06559e-12 0
298 1 14.1999 151.077 0 0.0098715 -1.08413e-12 0
313 1 17.04 151.077 0 -7.34758 -1.15341e-12 0
283 1 10.65 152.307 0 -0.0098715 -9.61453e-13 0
318 1 8.52 153.537 0 2.98704 4.17444e-14 0
323 1 9.93986 153.537 0 -3.79535 1.88638e-12 0
288 1 12.0699 152.307 0 0.0098715 -9.38583e-13 0
338 1 12.78 153.537 0 -0.0098715 1.89582e-12 0
343 1 14.1999 153.537 0 0.0098715 1.9571e-12 0
303 1 14.91 152.307 0 -0.0098715 -9.69669e-13 0
308 1 16.3299 152.307 0 8.16576 -1.04117e-12 0
358 1 17.04 153.537 0 -7.34758 2.08145e-12 0
328 1 10.65 154.766 0 -0.0098715 -6.70797e-13 0
363 1 8.52 155.996 0 2.98704 4.28546e-14 0
368 1 9.93986 155.996 0 -3.79535 1.79479e-12 0
333 1 12.0699 154.766 0 0.0098715 -6.40932e-13 0
383 1 12.78 155.996 0 -0.0098715 1.8483e-12 0
388 1 14.1999 155.996 0 0.0098715 1.86828e-12 0
348 1 14.91 154.766 0 -0.0098715 -6.66134e-13 0
353 1 16.3299 154.766 0 8.16576 -6.93889e-13 0
403 1 17.04 155.996 0 -7.34758 1.9944e-12 0
373 1 10.65 157.226 0 -0.0098715 -1.84874e-12 0
378 1 12.0699 157.226 0 0.0098715 -1.82832e-12 0
393 1 14.91 157.226 0 -0.0098715 -1.86962e-12 0
398 1 16.3299 157.226 0 8.16576 -2.00484e-12 0
408 1 8.52 158.456 0 2.98704 1.9762e-14 0
413 1 9.93986 158.456 0 -3.79535 6.38711e-13 0
418 1 10.65 159.685 0 -0.0098715 -1.82954e-12 0
423 1 12.0699 159.685 0 0.0098715 -1.79123e-12 0
428 1 12.78 158.456 0 -0.0098715 6.55698e-13 0
433 1 14.1999 158.456 0 0.0098715 6.69242e-13 0
438 1 14.91 159.685 0 -0.0098715 -1.85063e-12 0
443 1 16.3299 159.685 0 8.16576 -2.0004e-12 0
448 1 17.04 158.456 0 -7.34758 7.31859e-13 0
453 1 8.52 160.915 0 2.98704 4.17444e-14 0
458 1 9.93986 160.915 0 -3.79535 1.87972e-12 0
463 1 10.65 162.145 0 -0.0098715 2.04725e-13 0
468 1 12.0699 162.145 0 0.0098715 1.99618e-13 0
473 1 12.78 160.915 0 -0.0098715 1.90625e-12 0
478 1 14.1999 160.915 0 0.0098715 1.96476e-12 0
483 1 14.91 162.145 0 -0.0098715 1.99951e-13 0
488 1 16.3299 162.145 0 8.16576 2.48246e-13 0
493 1 17.04 160.915 0 -7.34758 2.089e-12 0
498 1 8.52 163.375 0 2.98704 0 0
503 1 9.93986 163.375 0 -3.79535 -1.01363e-13 0
518 1 12.78 163.375 0 -0.0098715 -1.02585e-13 0
523 1 14.1999 163.375 0 0.0098715 -1.05249e-13 0
538 1 17.04 163.375 0 -7.34758 -1.05249e-13 0
508 1 10.65 164.604 0 -0.0098715 -1.07825e-12 0
543 1 8.52 165.834 0 2.98704 0 0
548 1 9.93986 165.834 0 -3.79535 -1.33227e-15 0
513 1 12.0699 164.604 0 0.0098715 -1.04505e-12 0
563 1 12.78 165.834 0 -0.0098715 3.9968e-15 0
568 1 14.1999 165.834 0 0.0098715 1.11022e-16 0
528 1 14.91 164.604 0 -0.0098715 -1.0858e-12 0
533 1 16.3299 164.604 0 8.16576 -1.18383e-12 0
583 1 17.04 165.834 0 -7.34758 -1.66533e-15 0
553 1 10.65 167.064 0 -0.0098715 9.73888e-13 0
588 1 8.52 168.294 0 2.98704 -1.9762e-14 0
593 1 9.93986 168.294 0 -3.79535 -9.46243e-13 0
558 1 12.0699 167.064 0 0.0098715 9.54126e-13 0
608 1 12.78 168.294 0 -0.0098715 -9.62341e-13 0
613 1 14.1999 168.294 0 0.0098715 -9.86211e-13 0
573 1 14.91 167.064 0 -0.0098715 9.83214e-13 0
578 1 16.3299 167.064 0 8.16576 1.06015e-12 0
628 1 17.04 168.294 0 -7.34758 -1.05549e-12 0
598 1 10.65 169.523 0 -0.0098715 -1.06137e-13 0
603 1 12.0699 169.523 0 0.0098715 -9.82547e-14 0
618 1 14.91 169.523 0 -0.0098715 -1.00697e-13 0
623 1 16.3299 169.523 0 8.16576 -1.28675e-13 0
633 1 8.52 170.753 0 2.98704 0 0
638 1 9.93986 170.753 0 -3.79535 2.03615e-13 0
643 1 10.65 171.983 0 -0.0098715 1.95266e-12 0
648 1 12.0699 171.983 0 0.0098715 1.93534e-12 0
653 1 12.78 170.753 0 -0.0098715 2.06057e-13 0
658 1 14.1999 170.753 0 0.0098715 2.16382e-13 0
663 1 14.91 171.983 0 -0.0098715 1.96676e-12 0
668 1 16.3299 171.983 0 8.16576 2.12808e-12 0
673 1 17.04 170.753 0 -7.34758 2.0961e-13 0
678 1 8.52 173.213 0 2.98704 -4.28546e-14 0
683 1 9.93986 173.213 0 -3.79535 -1.89837e-12 0
688 1 10.65 174.442 0 -0.0098715 -1.04361e-13 0
693 1 12.0699 174.442 0 0.0098715 -1.01696e-13 0