ITEM: TIMESTEP
0
ITEM: NUMBER OF ATOMS
1440
ITEM: BOX BOUNDS pp ff pp
0.0000000000000000e+00 5.1119999999999997e+01
0.0000000000000000e+00 7.3785364402434297e+01
0.0000000000000000e+00 1.0000000000000000e+01
ITEM: ATOMS id type x y z fx fy fz
5 1 1.41986 0 0 1.49778 2.59226 0
9 1 2.13 1.22976 0 -1.9118 -3.29503 0
13 1 3.54986 1.22976 0 -2.78377 -3.09879 0
17 1 4.26 0 0 4.95153 2.39602 0
21 1 5.67986 0 0 -4.95153 2.39602 0
25 1 6.39 1.22976 0 2.78377 -3.09879 0
29 1 7.80986 1.22976 0 -2.78377 -3.09879 0
33 1 8.52 0 0 4.95153 2.39602 0
37 1 9.93986 0 0 -4.95153 2.39602 0
41 1 10.65 1.22976 0 2.78377 -3.09879 0
45 1 12.0699 1.22976 0 -2.78377 -3.09879 0
2 1 12.78 0 0 4.95153 2.39602 0
6 1 14.1999 0 0 -4.95153 2.39602 0
10 1 14.91 1.22976 0 2.78377 -3.09879 0
14 1 16.3299 1.22976 0 -2.78377 -3.09879 0
18 1 17.04 0 0 4.95153 2.39602 0
22 1 18.4599 0 0 -4.95153 2.39602 0
26 1 19.17 1.22976 0 2.78377 -3.09879 0
30 1 20.5899 1.22976 0 -2.78377 -3.09879 0
34 1 21.3 0 0 4.95153 2.39602 0
38 1 22.7199 0 0 -4.95153 2.39602 0
42 1 23.43 1.22976 0 2.78377 -3.09879 0
46 1 24.8499 1.22976 0 -2.78377 -3.09879 0
3 1 25.56 0 0 4.95153 2.39602 0
7 1 26.9799 0 0 -4.95153 2.39602 0
11 1 27.69 1.22976 0 2.78377 -3.09879 0
15 1 29.1099 1.22976 0 -2.78377 -3.09879 0
19 1 29.82 0 0 4.95153 2.39602 0
23 1 31.2399 0 0 -4.95153 2.39602 0
27 1 31.95 1.22976 0 2.78377 -3.09879 0
31 1 33.3699 1.22976 0 -2.78377 -3.09879 0
35 1 34.08 0 0 4.95153 2.39602 0
39 1 35.4999 0 0 -4.95153 2.39602 0
43 1 36.21 1.22976 0 2.78377 -3.09879 0
47 1 37.6299 1.22976 0 -2.78377 -3.09879 0
4 1 38.34 0 0 4.95153 2.39602 0
8 1 39.7599 0 0 -4.95153 2.39602 0
12 1 40.47 1.22976 0 2.78377 -3.09879 0
16 1 41.8899 1.22976 0 -2.78377 -3.09879 0
20 1 42.6 0 0 4.95153 2.39602 0
24 1 44.0199 0 0 -4.95153 2.39602 0
28 1 44.73 1.22976 0 2.78377 -3.09879 0
32 1 46.1499 1.22976 0 -2.78377 -3.09879 0
36 1 46.86 0 0 4.95153 2.39602 0
40 1 48.2799 0 0 -4.95153 2.39602 0
44 1 48.99 1.22976 0 4.06973 -7.06753 0
48 1 50.4099 1.22976 0 -3.66557 6.36476 0
49 1 0 2.45951 0 2.78377 -3.09879 0
53 1 1.41986 2.45951 0 0.0098715 2.58016e-13 0
57 1 2.13 3.68927 0 -0.0098715 1.79856e-14 0
61 1 3.54986 3.68927 0 0.0098715 -2.43139e-14 0
65 1 4.26 2.45951 0 -0.0098715 2.31815e-13 0
69 1 5.67986 2.45951 0 0.0098715 2.63234e-13 0
73 1 6.39 3.68927 0 -0.0098715 -5.77316e-15 0
77 1 7.80986 3.68927 0 0.0098715 -2.22045e-15 0
81 1 8.52 2.45951 0 -0.0098715 2.53131e-13 0
85 1 9.93986 2.45951 0 0.0098715 2.98095e-13 0
89 1 10.65 3.68927 0 -0.0098715 -3.09752e-14 0
93 1 12.0699 3.68927 0 0.0098715 -1.05471e-14 0
50 1 12.78 2.45951 0 -0.0098715 3.1708e-13 0
54 1 14.1999 2.45951 0 0.0098715 3.2041e-13 0
58 1 14.91 3.68927 0 -0.0098715 -1.40998e-14 0
62 1 16.3299 3.68927 0 0.0098715 -1.82077e-14 0
66 1 17.04 2.45951 0 -0.0098715 2.40918e-13 0
70 1 18.4599 2.45951 0 0.0098715 3.41727e-13 0
74 1 19.17 3.68927 0 -0.0098715 -1.31006e-14 0
78 1 20.5899 3.68927 0 0.0098715 -3.16414e-14 0
82 1 21.3 2.45951 0 -0.0098715 3.01315e-13 0
86 1 22.7199 2.45951 0 0.0098715 3.27516e-13 0
90 1 23.43 3.68927 0 -0.0098715 -1.4988e-14 0
94 1 24.8499 3.68927 0 0.0098715 -3.16414e-14 0
51 1 25.56 2.45951 0 -0.0098715 3.06866e-13 0
55 1 26.9799 2.45951 0 0.0098715 2.4647e-13 0
59 1 27.69 3.68927 0 -0.0098715 -1.4766e-14 0
63 1 29.1099 3.68927 0 0.0098715 -1.56541e-14 0
67 1 29.82 2.45951 0 -0.0098715 2.6068e-13 0
71 1 31.2399 2.45951 0 0.0098715 2.56906e-13 0
75 1 31.95 3.68927 0 -0.0098715 -1.83187e-14 0
79 1 33.3699 3.68927 0 0.0098715 -1.82077e-14 0
83 1 34.08 2.45951 0 -0.0098715 2.48468e-13 0
87 1 35.4999 2.45951 0 0.0098715 2.50022e-13 0
91 1 36.21 3.68927 0 -0.0098715 -1.64313e-14 0
95 1 37.6299 3.68927 0 0.0098715 -1.62093e-14 0
52 1 38.34 2.45951 0 -0.0098715 2.46914e-13 0
56 1 39.7599 2.45951 0 0.0098715 2.4647e-13 0
60 1 40.47 3.68927 0 -0.0098715 -1.62093e-14 0
64 1 41.8899 3.68927 0 0.0098715 -1.55431e-14 0
68 1 42.6 2.45951 0 -0.0098715 2.59348e-13 0
72 1 44.0199 2.45951 0 0.0098715 2.50022e-13 0
76 1 44.73 3.68927 0 -0.0098715 -1.46549e-14 0
80 1 46.1499 3.68927 0 0.0098715 -1.79856e-14 0
84 1 46.86 2.45951 0 -0.0098715 2.50688e-13 0
88 1 48.2799 2.45951 0 0.0098715 2.50022e-13 0
92 1 48.99 3.68927 0 -0.0098715 -1.62093e-14 0
96 1 50.4099 3.68927 0 0.0098715 -1.77636e-14 0
97 1 0 4.91902 0 -0.0098715 -1.81188e-13 0
101 1 1.41986 4.91902 0 0.0098715 -2.60458e-13 0
105 1 2.13 6.14878 0 -0.0098715 2.62346e-13 0
109 1 3.54986 6.14878 0 0.0098715 2.48579e-13 0
113 1 4.26 4.91902 0 -0.0098715 -2.48246e-13 0
117 1 5.67986 4.91902 0 0.0098715 -2.17826e-13 0
121 1 6.39 6.14878 0 -0.0098715 2.14273e-13 0
125 1 7.80986 6.14878 0 0.0098715 2.17826e-13 0
129 1 8.52 4.91902 0 -0.0098715 -2.20046e-13 0
133 1 9.93986 4.91902 0 0.0098715 -2.42029e-13 0
137 1 10.65 6.14878 0 -0.0098715 2.46692e-13 0
141 1 12.0699 6.14878 0 0.0098715 2.7256e-13 0
98 1 12.78 4.91902 0 -0.0098715 -2.74447e-13 0
102 1 14.1999 4.91902 0 0.0098715 -2.75668e-13 0
106 1 14.91 6.14878 0 -0.0098715 2.76112e-13 0
110 1 16.3299 6.14878 0 0.0098715 1.97398e-13 0
114 1 17.04 4.91902 0 -0.0098715 -1.86962e-13 0
118 1 18.4599 4.91902 0 0.0098715 -2.80997e-13 0
122 1 19.17 6.14878 0 -0.0098715 2.71783e-13 0
126 1 20.5899 6.14878 0 0.0098715 2.20601e-13 0
130 1 21.3 4.91902 0 -0.0098715 -2.17382e-13 0
134 1 22.7199 4.91902 0 0.0098715 -2.75557e-13 0
138 1 23.43 6.14878 0 -0.0098715 2.69895e-13 0
142 1 24.8499 6.14878 0 0.0098715 2.18825e-13 0
99 1 25.56 4.91902 0 -0.0098715 -2.32259e-13 0
103 1 26.9799 4.91902 0 0.0098715 -1.84408e-13 0
107 1 27.69 6.14878 0 -0.0098715 1.97398e-13 0
111 1 29.1099 6.14878 0 0.0098715 2.49689e-13 0
115 1 29.82 4.91902 0 -0.0098715 -2.31593e-13 0
119 1 31.2399 4.91902 0 0.0098715 -1.93179e-13 0
123 1 31.95 6.14878 0 -0.0098715 2.02727e-13 0
127 1 33.3699 6.14878 0 0.0098715 2.04503e-13 0
131 1 34.08 4.91902 0 -0.0098715 -1.95399e-13 0
135 1 35.4999 4.91902 0 0.0098715 -2.03615e-13 0
139 1 36.21 6.14878 0 -0.0098715 2.04503e-13 0
143 1 37.6299 6.14878 0 0.0098715 2.06501e-13 0
100 1 38.34 4.91902 0 -0.0098715 -1.93401e-13 0
104 1 39.7599 4.91902 0 0.0098715 -2.03948e-13 0
108 1 40.47 6.14878 0 -0.0098715 1.95843e-13 0
112 1 41.8899 6.14878 0 0.0098715 2.72893e-13 0
116 1 42.6 4.91902 0 -0.0098715 -2.65343e-13 0
120 1 44.0199 4.91902 0 0.0098715 -1.9329e-13 0
124 1 44.73 6.14878 0 -0.0098715 2.06279e-13 0
128 1 46.1499 6.14878 0 0.0098715 2.04725e-13 0
132 1 46.86 4.91902 0 -0.0098715 -1.93845e-13 0
136 1 48.2799 4.91902 0 0.0098715 -2.03615e-13 0
140 1 48.99 6.14878 0 -0.0098715 2.04725e-13 0
144 1 50.4099 6.14878 0 0.0098715 2.02505e-13 0
145 1 0 7.37854 0 -0.0098715 2.4869e-14 0
149 1 1.41986 7.37854 0 0.0098715 1.59872e-14 0
161 1 4.26 7.37854 0 -0.0098715 3.59712e-14 0
165 1 5.67986 7.37854 0 0.0098715 4.85167e-14 0
177 1 8.52 7.37854 0 -0.0098715 4.85167e-14 0
181 1 9.93986 7.37854 0 0.0098715 5.4956e-14 0
146 1 12.78 7.37854 0 -0.0098715 -1.02141e-14 0
150 1 14.1999 7.37854 0 0.0098715 -1.55431e-14 0
162 1 17.04 7.37854 0 -0.0098715 1.33227e-14 0
166 1 18.4599 7.37854 0 0.0098715 -2.26485e-14 0
178 1 21.3 7.37854 0 -0.0098715 3.89688e-14 0
182 1 22.7199 7.37854 0 0.0098715 -1.72085e-14 0
147 1 25.56 7.37854 0 -0.0098715 3.36398e-14 0
151 1 26.9799 7.37854 0 0.0098715 8.21565e-15 0
163 1 29.82 7.37854 0 -0.0098715 9.76996e-15 0
167 1 31.2399 7.37854 0 0.0098715 1.33227e-14 0
179 1 34.08 7.37854 0 -0.0098715 1.5099e-14 0
183 1 35.4999 7.37854 0 0.0098715 2.06501e-14 0
148 1 38.34 7.37854 0 -0.0098715 1.35447e-14 0
152 1 39.7599 7.37854 0 0.0098715 1.35447e-14 0
164 1 42.6 7.37854 0 -0.0098715 9.76996e-15 0
168 1 44.0199 7.37854 0 0.0098715 1.88738e-14 0
180 1 46.86 7.37854 0 -0.0098715 1.35447e-14 0
184 1 48.2799 7.37854 0 0.0098715 1.35447e-14 0
193 1 0 9.83805 0 -0.0098715 2.70006e-13 0
197 1 1.41986 9.83805 0 0.0098715 3.38507e-13 0
153 1 2.13 8.60829 0 -0.0098715 -3.41061e-13 0
157 1 3.54986 8.60829 0 0.0098715 -2.92877e-13 0
209 1 4.26 9.83805 0 -0.0098715 2.97873e-13 0
213 1 5.67986 9.83805 0 0.0098715 3.36065e-13 0
169 1 6.39 8.60829 0 -0.0098715 -3.28626e-13 0
173 1 7.80986 8.60829 0 0.0098715 -3.27294e-13 0
185 1 10.65 8.60829 0 -0.0098715 -3.29514e-13 0
225 1 8.52 9.83805 0 -0.0098715 3.27183e-13 0
229 1 9.93986 9.83805 0 0.0098715 3.3229e-13 0
189 1 12.0699 8.60829 0 0.0098715 -3.20632e-13 0
194 1 12.78 9.83805 0 -0.0098715 3.19078e-13 0
198 1 14.1999 9.83805 0 0.0098715 3.17302e-13 0
154 1 14.91 8.60829 0 -0.0098715 -3.14859e-13 0
158 1 16.3299 8.60829 0 0.0098715 -2.7145e-13 0
210 1 17.04 9.83805 0 -0.0098715 2.73559e-13 0
214 1 18.4599 9.83805 0 0.0098715 3.20854e-13 0
170 1 19.17 8.60829 0 -0.0098715 -3.06422e-13 0
174 1 20.5899 8.60829 0 0.0098715 -3.13416e-13 0
226 1 21.3 9.83805 0 -0.0098715 3.13971e-13 0
186 1 23.43 8.60829 0 -0.0098715 -3.0842e-13 0
230 1 22.7199 9.83805 0 0.0098715 3.19189e-13 0
190 1 24.8499 8.60829 0 0.0098715 -3.16969e-13 0
155 1 27.69 8.60829 0 -0.0098715 -2.85549e-13 0
195 1 25.56 9.83805 0 -0.0098715 3.22853e-13 0
199 1 26.9799 9.83805 0 0.0098715 2.8455e-13 0
159 1 29.1099 8.60829 0 0.0098715 -2.78111e-13 0
211 1 29.82 9.83805 0 -0.0098715 2.84217e-13 0
215 1 31.2399 9.83805 0 0.0098715 2.80664e-13 0
171 1 31.95 8.60829 0 -0.0098715 -2.86438e-13 0
175 1 33.3699 8.60829 0 0.0098715 -2.76779e-13 0
187 1 36.21 8.60829 0 -0.0098715 -2.80442e-13 0
227 1 34.08 9.83805 0 -0.0098715 2.80664e-13 0
231 1 35.4999 9.83805 0 0.0098715 2.82774e-13 0
191 1 37.6299 8.60829 0 0.0098715 -2.78333e-13 0
196 1 38.34 9.83805 0 -0.0098715 2.82774e-13 0
200 1 39.7599 9.83805 0 0.0098715 2.88103e-13 0
156 1 40.47 8.60829 0 -0.0098715 -2.82219e-13 0
160 1 41.8899 8.60829 0 0.0098715 -2.79443e-13 0
212 1 42.6 9.83805 0 -0.0098715 2.84217e-13 0
216 1 44.0199 9.83805 0 0.0098715 2.88103e-13 0
172 1 44.73 8.60829 0 -0.0098715 -2.78666e-13 0
176 1 46.1499 8.60829 0 0.0098715 -2.80109e-13 0
228 1 46.86 9.83805 0 -0.0098715 2.86327e-13 0
188 1 48.99 8.60829 0 -0.0098715 -2.80886e-13 0
232 1 48.2799 9.83805 0 0.0098715 2.82774e-13 0
192 1 50.4099 8.60829 0 0.0098715 -2.77112e-13 0
241 1 0 12.2976 0 -0.0098715 -2.70006e-13 0
245 1 1.41986 12.2976 0 0.0098715 -3.38507e-13 0
201 1 2.13 11.0678 0 -0.0098715 0 0
205 1 3.54986 11.0678 0 0.0098715 4.44089e-16 0
257 1 4.26 12.2976 0 -0.0098715 -2.9643e-13 0
261 1 5.67986 12.2976 0 0.0098715 -3.36176e-13 0
217 1 6.39 11.0678 0 -0.0098715 0 0
221 1 7.80986 11.0678 0 0.0098715 2.33147e-15 0
233 1 10.65 11.0678 0 -0.0098715 -1.33227e-15 0
273 1 8.52 12.2976 0 -0.0098715 -3.25517e-13 0
277 1 9.93986 12.2976 0 0.0098715 -3.34954e-13 0
237 1 12.0699 11.0678 0 0.0098715 -2.22045e-15 0
242 1 12.78 12.2976 0 -0.0098715 -3.16414e-13 0
246 1 14.1999 12.2976 0 0.0098715 -3.11084e-13 0
202 1 14.91 11.0678 0 -0.0098715 -7.10543e-15 0
206 1 16.3299 11.0678 0 0.0098715 -6.66134e-16 0
258 1 17.04 12.2976 0 -0.0098715 -2.78666e-13 0
262 1 18.4599 12.2976 0 0.0098715 -3.25295e-13 0
218 1 19.17 11.0678 0 -0.0098715 -7.10543e-15 0
222 1 20.5899 11.0678 0 0.0098715 3.44169e-15 0
274 1 21.3 12.2976 0 -0.0098715 -3.1164e-13 0
234 1 23.43 11.0678 0 -0.0098715 -8.43769e-15 0
278 1 22.7199 12.2976 0 0.0098715 -3.18079e-13 0
238 1 24.8499 11.0678 0 0.0098715 -1.88738e-15 0
203 1 27.69 11.0678 0 -0.0098715 -4.44089e-15 0
243 1 25.56 12.2976 0 -0.0098715 -3.23963e-13 0
247 1 26.9799 12.2976 0 0.0098715 -2.83884e-13 0
207 1 29.1099 11.0678 0 0.0098715 7.77156e-16 0
259 1 29.82 12.2976 0 -0.0098715 -2.77667e-13 0
263 1 31.2399 12.2976 0 0.0098715 -2.87548e-13 0
219 1 31.95 11.0678 0 -0.0098715 0 0
223 1 33.3699 11.0678 0 0.0098715 -6.66134e-16 0
235 1 36.21 11.0678 0 -0.0098715 -5.9952e-15 0
275 1 34.08 12.2976 0 -0.0098715 -2.83995e-13 0
279 1 35.4999 12.2976 0 0.0098715 -2.81886e-13 0
239 1 37.6299 11.0678 0 0.0098715 -6.66134e-16 0
244 1 38.34 12.2976 0 -0.0098715 -2.81886e-13 0
248 1 39.7599 12.2976 0 0.0098715 -2.83884e-13 0
204 1 40.47 11.0678 0 -0.0098715 -7.10543e-15 0
208 1 41.8899 11.0678 0 0.0098715 -8.88178e-16 0
260 1 42.6 12.2976 0 -0.0098715 -2.77667e-13 0
264 1 44.0199 12.2976 0 0.0098715 -2.83884e-13 0
220 1 44.73 11.0678 0 -0.0098715 -7.10543e-15 0
224 1 46.1499 11.0678 0 0.0098715 -6.66134e-16 0
276 1 46.86 12.2976 0 -0.0098715 -2.82108e-13 0
236 1 48.99 11.0678 0 -0.0098715 -6.21725e-15 0
280 1 48.2799 12.2976 0 0.0098715 -2.83662e-13 0
240 1 50.4099 11.0678 0 0.0098715 0 0
249 1 2.13 13.5273 0 -0.0098715 3.34288e-13 0
253 1 3.54986 13.5273 0 0.0098715 2.99649e-13 0
265 1 6.39 13.5273 0 -0.0098715 3.25406e-13 0
269 1 7.80986 13.5273 0 0.0098715 3.28959e-13 0
281 1 10.65 13.5273 0 -0.0098715 3.36842e-13 0
285 1 12.0699 13.5273 0 0.0098715 3.25295e-13 0
250 1 14.91 13.5273 0 -0.0098715 3.19966e-13 0
254 1 16.3299 13.5273 0 0.0098715 2.79221e-13 0
266 1 19.17 13.5273 0 -0.0098715 3.12084e-13 0
270 1 20.5899 13.5273 0 0.0098715 3.12195e-13 0
282 1 23.43 13.5273 0 -0.0098715 3.13749e-13 0
286 1 24.8499 13.5273 0 0.0098715 3.13971e-13 0
251 1 27.69 13.5273 0 -0.0098715 2.8777e-13 0
255 1 29.1099 13.5273 0 0.0098715 2.83995e-13 0
267 1 31.95 13.5273 0 -0.0098715 2.85993e-13 0
271 1 33.3699 13.5273 0 0.0098715 2.8455e-13 0
283 1 36.21 13.5273 0 -0.0098715 2.86327e-13 0
287 1 37.6299 13.5273 0 0.0098715 2.80997e-13 0
252 1 40.47 13.5273 0 -0.0098715 2.89879e-13 0
256 1 41.8899 13.5273 0 0.0098715 2.82441e-13 0
268 1 44.73 13.5273 0 -0.0098715 2.8455e-13 0
272 1 46.1499 13.5273 0 0.0098715 2.82774e-13 0
284 1 48.99 13.5273 0 -0.0098715 2.8455e-13 0
288 1 50.4099 13.5273 0 0.0098715 2.8777e-13 0
289 1 0 14.7571 0 -0.0098715 4.26326e-14 0
293 1 1.41986 14.7571 0 0.0098715 3.65263e-14 0
297 1 2.13 15.9868 0 -0.0098715 -3.9746e-14 0
301 1 3.54986 15.9868 0 0.0098715 -3.5083e-14 0
305 1 4.26 14.7571 0 -0.0098715 3.53051e-14 0
309 1 5.67986 14.7571 0 0.0098715 2.16493e-14 0
313 1 6.39 15.9868 0 -0.0098715 -2.07612e-14 0
317 1 7.80986 15.9868 0 0.0098715 -2.07612e-14 0
321 1 8.52 14.7571 0 -0.0098715 2.24265e-14 0
325 1 9.93986 14.7571 0 0.0098715 3.74145e-14 0
329 1 10.65 15.9868 0 -0.0098715 -3.5083e-14 0
333 1 12.0699 15.9868 0 0.0098715 -3.95239e-14 0
290 1 12.78 14.7571 0 -0.0098715 3.55271e-14 0
294 1 14.1999 14.7571 0 0.0098715 3.13083e-14 0
298 1 14.91 15.9868 0 -0.0098715 -4.30767e-14 0
302 1 16.3299 15.9868 0 0.0098715 -3.9746e-14 0
306 1 17.04 14.7571 0 -0.0098715 3.75255e-14 0
310 1 18.4599 14.7571 0 0.0098715 3.13083e-14 0
314 1 19.17 15.9868 0 -0.0098715 -4.38538e-14 0
318 1 20.5899 15.9868 0 0.0098715 -1.96509e-14 0
322 1 21.3 14.7571 0 -0.0098715 2.42029e-14 0
326 1 22.7199 14.7571 0 0.0098715 2.9643e-14 0
330 1 23.43 15.9868 0 -0.0098715 -4.57412e-14 0
334 1 24.8499 15.9868 0 0.0098715 -2.32037e-14 0
291 1 25.56 14.7571 0 -0.0098715 1.42109e-14 0
295 1 26.9799 14.7571 0 0.0098715 3.58602e-14 0
299 1 27.69 15.9868 0 -0.0098715 -4.35207e-14 0
303 1 29.1099 15.9868 0 0.0098715 -3.475e-14 0
307 1 29.82 14.7571 0 -0.0098715 3.64153e-14 0
311 1 31.2399 14.7571 0 0.0098715 3.73035e-14 0
315 1 31.95 15.9868 0 -0.0098715 -3.9968e-14 0
319 1 33.3699 15.9868 0 0.0098715 -3.9746e-14 0
323 1 34.08 14.7571 0 -0.0098715 3.73035e-14 0
327 1 35.4999 14.7571 0 0.0098715 3.40838e-14 0
331 1 36.21 15.9868 0 -0.0098715 -4.15223e-14 0
335 1 37.6299 15.9868 0 0.0098715 -3.9746e-14 0
292 1 38.34 14.7571 0 -0.0098715 3.90799e-14 0
296 1 39.7599 14.7571 0 0.0098715 3.05311e-14 0
300 1 40.47 15.9868 0 -0.0098715 -4.15223e-14 0
304 1 41.8899 15.9868 0 0.0098715 -3.4639e-14 0
308 1 42.6 14.7571 0 -0.0098715 3.64153e-14 0
312 1 44.0199 14.7571 0 0.0098715 3.23075e-14 0
316 1 44.73 15.9868 0 -0.0098715 -4.15223e-14 0
320 1 46.1499 15.9868 0 0.0098715 -3.9746e-14 0
324 1 46.86 14.7571 0 -0.0098715 3.55271e-14 0
328 1 48.2799 14.7571 0 0.0098715 3.40838e-14 0
332 1 48.99 15.9868 0 -0.0098715 -4.15223e-14 0
336 1 50.4099 15.9868 0 0.0098715 -3.55271e-14 0
337 1 0 17.2166 0 -0.0098715 -2.59348e-13 0
341 1 1.41986 17.2166 0 0.0098715 -3.45279e-13 0
345 1 2.13 18.4463 0 -0.0098715 3.19522e-13 0
349 1 3.54986 18.4463 0 0.0098715 3.62266e-13 0
353 1 4.26 17.2166 0 -0.0098715 -2.911e-13 0
357 1 5.67986 17.2166 0 0.0098715 -3.30846e-13 0
361 1 6.39 18.4463 0 -0.0098715 3.61045e-13 0
365 1 7.80986 18.4463 0 0.0098715 3.6815e-13 0
369 1 8.52 17.2166 0 -0.0098715 -3.193e-13 0
373 1 9.93986 17.2166 0 0.0098715 -3.1386e-13 0
377 1 10.65 18.4463 0 -0.0098715 3.82028e-13 0
381 1 12.0699 18.4463 0 0.0098715 3.17191e-13 0
338 1 12.78 17.2166 0 -0.0098715 -3.11307e-13 0
342 1 14.1999 17.2166 0 0.0098715 -3.07532e-13 0
346 1 14.91 18.4463 0 -0.0098715 3.08309e-13 0
350 1 16.3299 18.4463 0 0.0098715 3.19189e-13 0
354 1 17.04 17.2166 0 -0.0098715 -2.71339e-13 0
358 1 18.4599 17.2166 0 0.0098715 -3.25295e-13 0
362 1 19.17 18.4463 0 -0.0098715 2.9865e-13 0
366 1 20.5899 18.4463 0 0.0098715 3.9968e-13 0
370 1 21.3 17.2166 0 -0.0098715 -3.10862e-13 0
374 1 22.7199 17.2166 0 0.0098715 -3.03979e-13 0
378 1 23.43 18.4463 0 -0.0098715 3.00093e-13 0
382 1 24.8499 18.4463 0 0.0098715 4.01457e-13 0
339 1 25.56 17.2166 0 -0.0098715 -3.21965e-13 0
343 1 26.9799 17.2166 0 0.0098715 -2.76557e-13 0
347 1 27.69 18.4463 0 -0.0098715 3.24185e-13 0
351 1 29.1099 18.4463 0 0.0098715 3.29181e-13 0
355 1 29.82 17.2166 0 -0.0098715 -2.76001e-13 0
359 1 31.2399 17.2166 0 0.0098715 -2.89102e-13 0
363 1 31.95 18.4463 0 -0.0098715 3.18856e-13 0
367 1 33.3699 18.4463 0 0.0098715 3.19189e-13 0
371 1 34.08 17.2166 0 -0.0098715 -2.77556e-13 0
375 1 35.4999 17.2166 0 0.0098715 -2.76335e-13 0
379 1 36.21 18.4463 0 -0.0098715 3.1386e-13 0
383 1 37.6299 18.4463 0 0.0098715 3.1386e-13 0
340 1 38.34 17.2166 0 -0.0098715 -2.68452e-13 0
344 1 39.7599 17.2166 0 0.0098715 -2.76557e-13 0
348 1 40.47 18.4463 0 -0.0098715 3.26295e-13 0
352 1 41.8899 18.4463 0 0.0098715 3.27627e-13 0
356 1 42.6 17.2166 0 -0.0098715 -2.74447e-13 0
360 1 44.0199 17.2166 0 0.0098715 -2.76557e-13 0
364 1 44.73 18.4463 0 -0.0098715 3.24518e-13 0
368 1 46.1499 18.4463 0 0.0098715 3.15636e-13 0
372 1 46.86 17.2166 0 -0.0098715 -2.75779e-13 0
376 1 48.2799 17.2166 0 0.0098715 -2.76335e-13 0
380 1 48.99 18.4463 0 -0.0098715 3.1386e-13 0
384 1 50.4099 18.4463 0 0.0098715 3.19744e-13 0
385 1 0 19.6761 0 -0.0098715 -2.4869e-13 0
389 1 1.41986 19.6761 0 0.0098715 -2.00395e-13 0
393 1 2.13 20.9059 0 -0.0098715 -2.22045e-16 0
397 1 3.54986 20.9059 0 0.0098715 -7.77156e-16 0
401 1 4.26 19.6761 0 -0.0098715 -2.7689e-13 0
405 1 5.67986 19.6761 0 0.0098715 -2.5191e-13 0
409 1 6.39 20.9059 0 -0.0098715 5.32907e-15 0
413 1 7.80986 20.9059 0 0.0098715 0 0
417 1 8.52 19.6761 0 -0.0098715 -2.48246e-13 0
421 1 9.93986 19.6761 0 0.0098715 -2.71783e-13 0
425 1 10.65 20.9059 0 -0.0098715 -1.66533e-15 0
429 1 12.0699 20.9059 0 0.0098715 -6.66134e-16 0
386 1 12.78 19.6761 0 -0.0098715 -2.0095e-13 0
390 1 14.1999 19.6761 0 0.0098715 -1.98952e-13 0
394 1 14.91 20.9059 0 -0.0098715 4.66294e-15 0
398 1 16.3299 20.9059 0 0.0098715 8.88178e-16 0
402 1 17.04 19.6761 0 -0.0098715 -2.51577e-13 0
406 1 18.4599 19.6761 0 0.0098715 -1.84741e-13 0
410 1 19.17 20.9059 0 -0.0098715 7.43849e-15 0
414 1 20.5899 20.9059 0 0.0098715 1.55431e-15 0
418 1 21.3 19.6761 0 -0.0098715 -2.81997e-13 0
422 1 22.7199 19.6761 0 0.0098715 -1.89959e-13 0
426 1 23.43 20.9059 0 -0.0098715 5.32907e-15 0
430 1 24.8499 20.9059 0 0.0098715 3.33067e-15 0
387 1 25.56 19.6761 0 -0.0098715 -2.81108e-13 0
391 1 26.9799 19.6761 0 0.0098715 -2.45803e-13 0
395 1 27.69 20.9059 0 -0.0098715 2.33147e-15 0
399 1 29.1099 20.9059 0 0.0098715 3.55271e-15 0
403 1 29.82 19.6761 0 -0.0098715 -2.33813e-13 0
407 1 31.2399 19.6761 0 0.0098715 -2.47913e-13 0
411 1 31.95 20.9059 0 -0.0098715 -1.22125e-15 0
415 1 33.3699 20.9059 0 0.0098715 8.88178e-16 0
419 1 34.08 19.6761 0 -0.0098715 -2.42251e-13 0
423 1 35.4999 19.6761 0 0.0098715 -2.44138e-13 0
427 1 36.21 20.9059 0 -0.0098715 8.88178e-16 0
431 1 37.6299 20.9059 0 0.0098715 7.77156e-16 0
388 1 38.34 19.6761 0 -0.0098715 -2.38476e-13 0
392 1 39.7599 19.6761 0 0.0098715 -2.44027e-13 0
396 1 40.47 20.9059 0 -0.0098715 7.77156e-16 0
400 1 41.8899 20.9059 0 0.0098715 1.88738e-15 0
404 1 42.6 19.6761 0 -0.0098715 -2.37366e-13 0
408 1 44.0199 19.6761 0 0.0098715 -2.42251e-13 0
412 1 44.73 20.9059 0 -0.0098715 8.88178e-16 0
416 1 46.1499 20.9059 0 0.0098715 7.77156e-16 0
420 1 46.86 19.6761 0 -0.0098715 -2.3781e-13 0
424 1 48.2799 19.6761 0 0.0098715 -2.44138e-13 0
428 1 48.99 20.9059 0 -0.0098715 7.77156e-16 0
432 1 50.4099 20.9059 0 0.0098715 3.55271e-15 0
433 1 0 22.1356 0 -0.0098715 2.80664e-13 0
437 1 1.41986 22.1356 0 0.0098715 2.26597e-13 0
449 1 4.26 22.1356 0 -0.0098715 3.14082e-13 0
453 1 5.67986 22.1356 0 0.0098715 2.68674e-13 0
465 1 8.52 22.1356 0 -0.0098715 2.74003e-13 0
469 1 9.93986 22.1356 0 0.0098715 2.81553e-13 0
434 1 12.78 22.1356 0 -0.0098715 2.31926e-13 0
438 1 14.1999 22.1356 0 0.0098715 2.30149e-13 0
450 1 17.04 22.1356 0 -0.0098715 2.78999e-13 0
454 1 18.4599 22.1356 0 0.0098715 2.19491e-13 0
466 1 21.3 22.1356 0 -0.0098715 3.07199e-13 0
470 1 22.7199 22.1356 0 0.0098715 2.26708e-13 0
435 1 25.56 22.1356 0 -0.0098715 2.96652e-13 0
439 1 26.9799 22.1356 0 0.0098715 2.72227e-13 0
451 1 29.82 22.1356 0 -0.0098715 2.6712e-13 0
455 1 31.2399 22.1356 0 0.0098715 2.70117e-13 0
467 1 34.08 22.1356 0 -0.0098715 2.70117e-13 0
471 1 35.4999 22.1356 0 0.0098715 2.72227e-13 0
436 1 38.34 22.1356 0 -0.0098715 2.72227e-13 0
440 1 39.7599 22.1356 0 0.0098715 2.72227e-13 0
452 1 42.6 22.1356 0 -0.0098715 2.6712e-13 0
456 1 44.0199 22.1356 0 0.0098715 2.72227e-13 0
468 1 46.86 22.1356 0 -0.0098715 2.68674e-13 0
472 1 48.2799 22.1356 0 0.0098715 2.72227e-13 0
481 1 0 24.5951 0 -0.0098715 -2.06057e-13 0
485 1 1.41986 24.5951 0 0.0098715 -2.83551e-13 0
441 1 2.13 23.3654 0 -0.0098715 -8.28226e-14 0
445 1 3.54986 23.3654 0 0.0098715 -1.80633e-13 0
497 1 4.26 24.5951 0 -0.0098715 -2.32703e-13 0
501 1 5.67986 24.5951 0 0.0098715 -2.87659e-13 0
457 1 6.39 23.3654 0 -0.0098715 -1.26121e-13 0
461 1 7.80986 23.3654 0 0.0098715 -1.25455e-13 0
473 1 10.65 23.3654 0 -0.0098715 -1.78302e-13 0
513 1 8.52 24.5951 0 -0.0098715 -2.73448e-13 0
517 1 9.93986 24.5951 0 0.0098715 -2.79443e-13 0
477 1 12.0699 23.3654 0 0.0098715 -9.15934e-14 0
482 1 12.78 24.5951 0 -0.0098715 -2.72227e-13 0
486 1 14.1999 24.5951 0 0.0098715 -2.75779e-13 0
442 1 14.91 23.3654 0 -0.0098715 -8.14904e-14 0
446 1 16.3299 23.3654 0 0.0098715 -1.54432e-13 0
498 1 17.04 24.5951 0 -0.0098715 -2.05835e-13 0
502 1 18.4599 24.5951 0 0.0098715 -2.79332e-13 0
458 1 19.17 23.3654 0 -0.0098715 -8.30447e-14 0
462 1 20.5899 23.3654 0 0.0098715 -1.71307e-13 0
514 1 21.3 24.5951 0 -0.0098715 -2.67453e-13 0
474 1 23.43 23.3654 0 -0.0098715 -8.17124e-14 0
518 1 22.7199 24.5951 0 0.0098715 -2.73892e-13 0
478 1 24.8499 23.3654 0 0.0098715 -1.69531e-13 0
443 1 27.69 23.3654 0 -0.0098715 -1.44995e-13 0
483 1 25.56 24.5951 0 -0.0098715 -2.72671e-13 0
487 1 26.9799 24.5951 0 0.0098715 -2.00395e-13 0
447 1 29.1099 23.3654 0 0.0098715 -1.34115e-13 0
499 1 29.82 24.5951 0 -0.0098715 -2.38254e-13 0
503 1 31.2399 24.5951 0 0.0098715 -2.16493e-13 0
459 1 31.95 23.3654 0 -0.0098715 -1.41887e-13 0
463 1 33.3699 23.3654 0 0.0098715 -1.47327e-13 0
475 1 36.21 23.3654 0 -0.0098715 -1.43885e-13 0
515 1 34.08 24.5951 0 -0.0098715 -2.14717e-13 0
519 1 35.4999 24.5951 0 0.0098715 -2.1616e-13 0
479 1 37.6299 23.3654 0 0.0098715 -1.50768e-13 0
484 1 38.34 24.5951 0 -0.0098715 -2.12608e-13 0
488 1 39.7599 24.5951 0 0.0098715 -2.1283e-13 0
444 1 40.47 23.3654 0 -0.0098715 -1.41442e-13 0
448 1 41.8899 23.3654 0 0.0098715 -1.34004e-13 0
500 1 42.6 24.5951 0 -0.0098715 -2.34701e-13 0
504 1 44.0199 24.5951 0 0.0098715 -2.1283e-13 0
460 1 44.73 23.3654 0 -0.0098715 -1.41664e-13 0
464 1 46.1499 23.3654 0 0.0098715 -1.47216e-13 0
516 1 46.86 24.5951 0 -0.0098715 -2.1283e-13 0
476 1 48.99 23.3654 0 -0.0098715 -1.44107e-13 0
520 1 48.2799 24.5951 0 0.0098715 -2.10831e-13 0
480 1 50.4099 23.3654 0 0.0098715 -1.49214e-13 0
529 1 0 27.0546 0 -0.0098715 1.49214e-13 0
533 1 1.41986 27.0546 0 0.0098715 7.12763e-14 0
489 1 2.13 25.8249 0 -0.0098715 2.7911e-13 0
493 1 3.54986 25.8249 0 0.0098715 2.29927e-13 0
545 1 4.26 27.0546 0 -0.0098715 1.48437e-13 0
549 1 5.67986 27.0546 0 0.0098715 1.03695e-13 0
505 1 6.39 25.8249 0 -0.0098715 2.78e-13 0
509 1 7.80986 25.8249 0 0.0098715 2.75335e-13 0
521 1 10.65 25.8249 0 -0.0098715 2.69118e-13 0
561 1 8.52 27.0546 0 -0.0098715 1.16129e-13 0
565 1 9.93986 27.0546 0 0.0098715 1.5421e-13 0
525 1 12.0699 25.8249 0 0.0098715 2.81997e-13 0
530 1 12.78 27.0546 0 -0.0098715 8.91509e-14 0
534 1 14.1999 27.0546 0 0.0098715 8.38218e-14 0
490 1 14.91 25.8249 0 -0.0098715 2.83329e-13 0
494 1 16.3299 25.8249 0 0.0098715 2.05058e-13 0
546 1 17.04 27.0546 0 -0.0098715 1.45328e-13 0
550 1 18.4599 27.0546 0 0.0098715 7.67164e-14 0
506 1 19.17 25.8249 0 -0.0098715 2.74447e-13 0
510 1 20.5899 25.8249 0 0.0098715 2.63678e-13 0
562 1 21.3 27.0546 0 -0.0098715 1.58207e-13 0
522 1 23.43 25.8249 0 -0.0098715 2.76446e-13 0
566 1 22.7199 27.0546 0 0.0098715 8.39329e-14 0
526 1 24.8499 25.8249 0 0.0098715 2.67231e-13 0
491 1 27.69 25.8249 0 -0.0098715 2.20268e-13 0
531 1 25.56 27.0546 0 -0.0098715 1.51212e-13 0
535 1 26.9799 27.0546 0 0.0098715 1.41998e-13 0
495 1 29.1099 25.8249 0 0.0098715 2.37366e-13 0
547 1 29.82 27.0546 0 -0.0098715 1.13687e-13 0
551 1 31.2399 27.0546 0 0.0098715 1.36446e-13 0
507 1 31.95 25.8249 0 -0.0098715 2.15827e-13 0
511 1 33.3699 25.8249 0 0.0098715 2.12164e-13 0
523 1 36.21 25.8249 0 -0.0098715 2.20046e-13 0
563 1 34.08 27.0546 0 -0.0098715 1.38223e-13 0
567 1 35.4999 27.0546 0 0.0098715 1.47327e-13 0
527 1 37.6299 25.8249 0 0.0098715 2.06835e-13 0
532 1 38.34 27.0546 0 -0.0098715 1.36668e-13 0
536 1 39.7599 27.0546 0 0.0098715 1.40221e-13 0
492 1 40.47 25.8249 0 -0.0098715 2.21601e-13 0
496 1 41.8899 25.8249 0 0.0098715 2.37588e-13 0
548 1 42.6 27.0546 0 -0.0098715 1.13687e-13 0
552 1 44.0199 27.0546 0 0.0098715 1.47327e-13 0
508 1 44.73 25.8249 0 -0.0098715 2.18936e-13 0
512 1 46.1499 25.8249 0 0.0098715 2.12164e-13 0
564 1 46.86 27.0546 0 -0.0098715 1.33116e-13 0
524 1 48.99 25.8249 0 -0.0098715 2.2049e-13 0
568 1 48.2799 27.0546 0 0.0098715 1.38445e-13 0
528 1 50.4099 25.8249 0 0.0098715 2.0961e-13 0
537 1 2.13 28.2844 0 -0.0098715 -3.37508e-13 0
541 1 3.54986 28.2844 0 0.0098715 -3.76588e-13 0
553 1 6.39 28.2844 0 -0.0098715 -3.76477e-13 0
557 1 7.80986 28.2844 0 0.0098715 -3.80029e-13 0
569 1 10.65 28.2844 0 -0.0098715 -4.00013e-13 0
573 1 12.0699 28.2844 0 0.0098715 -3.49276e-13 0
538 1 14.91 28.2844 0 -0.0098715 -3.43947e-13 0
542 1 16.3299 28.2844 0 0.0098715 -3.46057e-13 0
554 1 19.17 28.2844 0 -0.0098715 -3.3229e-13 0
558 1 20.5899 28.2844 0 0.0098715 -4.20219e-13 0
570 1 23.43 28.2844 0 -0.0098715 -3.27294e-13 0
574 1 24.8499 28.2844 0 0.0098715 -4.1489e-13 0
539 1 27.69 28.2844 0 -0.0098715 -3.40838e-13 0
543 1 29.1099 28.2844 0 0.0098715 -3.3995e-13 0
555 1 31.95 28.2844 0 -0.0098715 -3.42615e-13 0
559 1 33.3699 28.2844 0 0.0098715 -3.4428e-13 0
571 1 36.21 28.2844 0 -0.0098715 -3.30069e-13 0
575 1 37.6299 28.2844 0 0.0098715 -3.40505e-13 0
540 1 40.47 28.2844 0 -0.0098715 -3.38729e-13 0
544 1 41.8899 28.2844 0 0.0098715 -3.39506e-13 0
556 1 44.73 28.2844 0 -0.0098715 -3.37175e-13 0
560 1 46.1499 28.2844 0 0.0098715 -3.38729e-13 0
572 1 48.99 28.2844 0 -0.0098715 -3.29847e-13 0
576 1 50.4099 28.2844 0 0.0098715 -3.37508e-13 0
577 1 0 29.5141 0 -0.0098715 1.45661e-13 0
581 1 1.41986 29.5141 0 0.0098715 2.33924e-13 0
585 1 2.13 30.7439 0 -0.0098715 -1.89848e-13 0
589 1 3.54986 30.7439 0 0.0098715 -1.39999e-13 0
593 1 4.26 29.5141 0 -0.0098715 1.80078e-13 0
597 1 5.67986 29.5141 0 0.0098715 2.49356e-13 0
601 1 6.39 30.7439 0 -0.0098715 -1.95288e-13 0
605 1 7.80986 30.7439 0 0.0098715 -2.00617e-13 0
609 1 8.52 29.5141 0 -0.0098715 2.34035e-13 0
613 1 9.93986 29.5141 0 0.0098715 2.01839e-13 0
617 1 10.65 30.7439 0 -0.0098715 -1.82965e-13 0
621 1 12.0699 30.7439 0 0.0098715 -1.87295e-13 0
578 1 12.78 29.5141 0 -0.0098715 2.15161e-13 0
582 1 14.1999 29.5141 0 0.0098715 2.25486e-13 0
586 1 14.91 30.7439 0 -0.0098715 -1.87295e-13 0
590 1 16.3299 30.7439 0 0.0098715 -1.13354e-13 0
594 1 17.04 29.5141 0 -0.0098715 1.49658e-13 0
598 1 18.4599 29.5141 0 0.0098715 2.36144e-13 0
602 1 19.17 30.7439 0 -0.0098715 -1.7919e-13 0
606 1 20.5899 30.7439 0 0.0098715 -1.78524e-13 0
610 1 21.3 29.5141 0 -0.0098715 2.27152e-13 0
614 1 22.7199 29.5141 0 0.0098715 2.25597e-13 0
618 1 23.43 30.7439 0 -0.0098715 -1.81188e-13 0
622 1 24.8499 30.7439 0 0.0098715 -1.76748e-13 0
579 1 25.56 29.5141 0 -0.0098715 2.40696e-13 0
583 1 26.9799 29.5141 0 0.0098715 1.5643e-13 0
587 1 27.69 30.7439 0 -0.0098715 -1.24123e-13 0
591 1 29.1099 30.7439 0 0.0098715 -1.47771e-13 0
595 1 29.82 29.5141 0 -0.0098715 1.89848e-13 0
599 1 31.2399 29.5141 0 0.0098715 1.63425e-13 0
603 1 31.95 30.7439 0 -0.0098715 -1.17018e-13 0
607 1 33.3699 30.7439 0 0.0098715 -1.22236e-13 0
611 1 34.08 29.5141 0 -0.0098715 1.56541e-13 0
615 1 35.4999 29.5141 0 0.0098715 1.672e-13 0
619 1 36.21 30.7439 0 -0.0098715 -1.22236e-13 0
623 1 37.6299 30.7439 0 0.0098715 -1.22125e-13 0
580 1 38.34 29.5141 0 -0.0098715 1.55431e-13 0
584 1 39.7599 29.5141 0 0.0098715 1.67089e-13 0
588 1 40.47 30.7439 0 -0.0098715 -1.25677e-13 0
592 1 41.8899 30.7439 0 0.0098715 -1.47327e-13 0
596 1 42.6 29.5141 0 -0.0098715 1.88072e-13 0
600 1 44.0199 29.5141 0 0.0098715 1.70641e-13 0
604 1 44.73 30.7439 0 -0.0098715 -1.22236e-13 0
608 1 46.1499 30.7439 0 0.0098715 -1.20348e-13 0
612 1 46.86 29.5141 0 -0.0098715 1.58318e-13 0
616 1 48.2799 29.5141 0 0.0098715 1.672e-13 0
620 1 48.99 30.7439 0 -0.0098715 -1.22125e-13 0
624 1 50.4099 30.7439 0 0.0098715 -1.20792e-13 0
625 1 0 31.9737 0 -0.0098715 6.21725e-13 0
629 1 1.41986 31.9737 0 0.0098715 6.97997e-13 0
633 1 2.13 33.2034 0 -0.0098715 -9.38361e-13 0
637 1 3.54986 33.2034 0 0.0098715 -9.19931e-13 0
641 1 4.26 31.9737 0 -0.0098715 6.35492e-13 0
645 1 5.67986 31.9737 0 0.0098715 7.06879e-13 0
649 1 6.39 33.2034 0 -0.0098715 -9.63785e-13 0
653 1 7.80986 33.2034 0 0.0098715 -9.65561e-13 0
657 1 8.52 31.9737 0 -0.0098715 7.01883e-13 0
661 1 9.93986 31.9737 0 0.0098715 7.08544e-13 0
665 1 10.65 33.2034 0 -0.0098715 -9.5457e-13 0
669 1 12.0699 33.2034 0 0.0098715 -9.71001e-13 0
626 1 12.78 31.9737 0 -0.0098715 6.91225e-13 0