ITEM: TIMESTEP
0
ITEM: NUMBER OF ATOMS
250
ITEM: BOX BOUNDS pp pp pp
0.0000000000000000e+00 7.6680000000000007e+01
0.0000000000000000e+00 2.4595121467478101e+01
0.0000000000000000e+00 2.8399999999999999e+01
ITEM: ATOMS id type x y z fx fy fz
1 1 25.56 0 0 2.98704 -6.66134e-16 0
6 1 26.9799 0 0 -3.79535 -4.26326e-14 0
11 1 27.69 1.22976 0 -0.0098715 -2.19824e-14 0
16 1 29.1099 1.22976 0 0.0098715 -5.44009e-15 0
21 1 29.82 0 0 -0.0098715 -3.73035e-14 0
26 1 31.2399 0 0 0.0466745 -0.0112616 -0.00727184
31 1 31.95 1.22976 0 0.296705 0.0309824 0.0428301
36 1 33.3788 1.23264 0.00332595 -0.702726 -0.231812 -0.0831663
41 1 34.08 0 0 0.116371 -0.00979445 0.0424847
46 1 35.4999 0 0 0.0379762 -0.0401378 -0.00750174
51 1 36.21 1.22976 0 -0.0098715 -2.88658e-15 0
56 1 37.6299 1.22976 0 0.0098715 -6.43929e-15 0
61 1 38.34 0 0 -0.0098715 -4.61853e-14 0
66 1 39.7599 0 0 0.0098715 -4.26326e-14 0
71 1 40.47 1.22976 0 -0.0098715 -2.88658e-15 0
76 1 41.8899 1.22976 0 0.0098715 -1.79856e-14 0
81 1 42.6 0 0 -0.0098715 -3.01981e-14 0
86 1 44.0199 0 0 0.0098715 -4.26326e-14 0
91 1 44.73 1.22976 0 -0.0098715 -1.11022e-15 0
96 1 46.1499 1.22976 0 0.0098715 -6.43929e-15 0
101 1 46.86 0 0 -0.0098715 -4.61853e-14 0
106 1 48.2799 0 0 0.0098715 -3.37508e-14 0
111 1 48.99 1.22976 0 -0.0098715 -5.44009e-15 0
116 1 50.4099 1.22976 0 8.16576 -2.55351e-15 0
121 1 51.12 0 0 -7.34758 -4.61853e-14 0
126 1 25.56 2.45951 0 2.98704 0 0
131 1 26.9799 2.45951 0 -3.79535 -2.40918e-14 0
136 1 27.69 3.68927 0 -0.0098715 3.56382e-14 0
141 1 29.1099 3.68927 0 0.0098715 5.42899e-14 0
146 1 29.82 2.45951 0 -0.0098715 -1.13243e-14 0
151 1 31.2399 2.45951 0 0.0198049 0.0157697 -0.00731135
156 1 31.95 3.68927 0 -0.0098715 5.21805e-14 0
161 1 33.3699 3.68927 0 0.0171291 -0.0180187 -0.00745902
166 1 34.08 2.45951 0 0.179332 0.18076 0.0423167
171 1 35.4999 2.45951 0 0.0292367 0.045071 -0.00755034
176 1 36.21 3.68927 0 -0.0098715 2.67564e-14 0
181 1 37.6299 3.68927 0 0.0098715 2.14273e-14 0
186 1 38.34 2.45951 0 -0.0098715 -3.61933e-14 0
191 1 39.7599 2.45951 0 0.0098715 -3.58602e-14 0
196 1 40.47 3.68927 0 -0.0098715 3.20854e-14 0
201 1 41.8899 3.68927 0 0.0098715 4.4853e-14 0
206 1 42.6 2.45951 0 -0.0098715 -3.9746e-14 0
211 1 44.0199 2.45951 0 0.0098715 -3.78586e-14 0
216 1 44.73 3.68927 0 -0.0098715 2.85327e-14 0
221 1 46.1499 3.68927 0 0.0098715 2.14273e-14 0
226 1 46.86 2.45951 0 -0.0098715 -3.95239e-14 0
231 1 48.2799 2.45951 0 0.0098715 -4.88498e-15 0
236 1 48.99 3.68927 0 -0.0098715 5.79536e-14 0
241 1 50.4099 3.68927 0 8.16576 2.39808e-14 0
246 1 51.12 2.45951 0 -7.34758 -3.90799e-14 0
2 1 25.56 4.91902 0 2.98704 2.22045e-16 0
7 1 26.9799 4.91902 0 -3.79535 -3.93019e-14 0
12 1 27.69 6.14878 0 -0.0098715 5.55112e-16 0
17 1 29.1099 6.14878 0 0.0098715 -2.88658e-15 0
22 1 29.82 4.91902 0 -0.0098715 -5.66214e-14 0
27 1 31.2399 4.91902 0 0.0098715 -5.85088e-14 0
32 1 31.95 6.14878 0 -0.0098715 -7.21645e-15 0
37 1 33.3699 6.14878 0 0.0098715 -4.77396e-15 0
42 1 34.08 4.91902 0 -0.0098715 -2.59792e-14 0
47 1 35.4999 4.91902 0 0.0098715 -2.24265e-14 0
52 1 36.21 6.14878 0 -0.0098715 -6.55032e-15 0
57 1 37.6299 6.14878 0 0.0098715 -8.32667e-15 0
62 1 38.34 4.91902 0 -0.0098715 -2.59792e-14 0
67 1 39.7599 4.91902 0 0.0098715 -2.25375e-14 0
72 1 40.47 6.14878 0 -0.0098715 -6.55032e-15 0
77 1 41.8899 6.14878 0 0.0098715 -1.90958e-14 0
82 1 42.6 4.91902 0 -0.0098715 -5.08482e-14 0
87 1 44.0199 4.91902 0 0.0098715 -2.27596e-14 0
92 1 44.73 6.14878 0 -0.0098715 -6.55032e-15 0
97 1 46.1499 6.14878 0 0.0098715 -8.32667e-15 0
102 1 46.86 4.91902 0 -0.0098715 -2.4869e-14 0
107 1 48.2799 4.91902 0 0.0098715 -5.26246e-14 0
112 1 48.99 6.14878 0 -0.0098715 -6.43929e-15 0
117 1 50.4099 6.14878 0 8.16576 -1.11022e-14 0
122 1 51.12 4.91902 0 -7.34758 -2.84217e-14 0
127 1 25.56 7.37854 0 2.98704 2.22045e-16 0
132 1 26.9799 7.37854 0 -3.79535 -2.73115e-14 0
137 1 27.69 8.60829 0 -0.0098715 1.249e-13 0
142 1 29.1099 8.60829 0 0.0098715 1.60094e-13 0
147 1 29.82 7.37854 0 -0.0098715 -6.88338e-15 0
152 1 31.2399 7.37854 0 0.0098715 -2.34257e-14 0
157 1 31.95 8.60829 0 -0.0098715 1.51767e-13 0
162 1 33.3699 8.60829 0 0.0098715 1.47549e-13 0
167 1 34.08 7.37854 0 -0.0098715 -6.66134e-15 0
172 1 35.4999 7.37854 0 0.0098715 -2.66454e-15 0
177 1 36.21 8.60829 0 -0.0098715 1.43996e-13 0
182 1 37.6299 8.60829 0 0.0098715 1.58207e-13 0
187 1 38.34 7.37854 0 -0.0098715 -6.66134e-15 0
192 1 39.7599 7.37854 0 0.0098715 -2.77556e-15 0
197 1 40.47 8.60829 0 -0.0098715 1.47549e-13 0
202 1 41.8899 8.60829 0 0.0098715 1.73417e-13 0
207 1 42.6 7.37854 0 -0.0098715 -3.10862e-15 0
212 1 44.0199 7.37854 0 0.0098715 -2.9976e-15 0
217 1 44.73 8.60829 0 -0.0098715 1.45772e-13 0
222 1 46.1499 8.60829 0 0.0098715 1.58207e-13 0
227 1 46.86 7.37854 0 -0.0098715 -6.66134e-15 0
232 1 48.2799 7.37854 0 0.0098715 -1.45439e-14 0
237 1 48.99 8.60829 0 -0.0098715 1.40776e-13 0
242 1 50.4099 8.60829 0 8.16576 1.58651e-13 0
247 1 51.12 7.37854 0 -7.34758 -3.55271e-15 0
3 1 25.56 9.83805 0 2.98704 -1.02141e-14 0
8 1 26.9799 9.83805 0 -3.79535 -8.68194e-14 0
13 1 27.69 11.0678 0 -0.0098715 -1.41887e-13 0
18 1 29.1099 11.0678 0 0.0098715 -7.91589e-14 0
23 1 29.82 9.83805 0 -0.0098715 -1.28342e-13 0
28 1 31.2399 9.83805 0 0.0098715 -1.21902e-13 0
33 1 31.95 11.0678 0 -0.0098715 -1.37224e-13 0
38 1 33.3699 11.0678 0 0.0098715 -1.1513e-13 0
43 1 34.08 9.83805 0 -0.0098715 -1.2923e-13 0
48 1 35.4999 9.83805 0 0.0098715 -1.34115e-13 0
53 1 36.21 11.0678 0 -0.0098715 -1.29341e-13 0
58 1 37.6299 11.0678 0 0.0098715 -1.29341e-13 0
63 1 38.34 9.83805 0 -0.0098715 -1.32783e-13 0
68 1 39.7599 9.83805 0 0.0098715 -1.34226e-13 0
73 1 40.47 11.0678 0 -0.0098715 -1.16906e-13 0
78 1 41.8899 11.0678 0 0.0098715 -1.28675e-13 0
83 1 42.6 9.83805 0 -0.0098715 -1.54099e-13 0
88 1 44.0199 9.83805 0 0.0098715 -1.27343e-13 0
93 1 44.73 11.0678 0 -0.0098715 -1.29341e-13 0
98 1 46.1499 11.0678 0 0.0098715 -1.29341e-13 0
103 1 46.86 9.83805 0 -0.0098715 -1.2812e-13 0
108 1 48.2799 9.83805 0 0.0098715 -1.24456e-13 0
113 1 48.99 11.0678 0 -0.0098715 -8.81517e-14 0
118 1 50.4099 11.0678 0 8.16576 -1.20903e-13 0
123 1 51.12 9.83805 0 -7.34758 -1.3145e-13 0
128 1 25.56 12.2976 0 2.98704 1.13243e-14 0
133 1 26.9799 12.2976 0 -3.79535 2.69229e-13 0
148 1 29.82 12.2976 0 -0.0098715 2.75446e-13 0
153 1 31.2399 12.2976 0 0.0098715 3.60822e-13 0
168 1 34.08 12.2976 0 -0.0098715 3.27627e-13 0
173 1 35.4999 12.2976 0 0.0098715 3.26073e-13 0
188 1 38.34 12.2976 0 -0.0098715 3.29625e-13 0
193 1 39.7599 12.2976 0 0.0098715 3.26073e-13 0
208 1 42.6 12.2976 0 -0.0098715 3.24851e-13 0
213 1 44.0199 12.2976 0 0.0098715 3.22187e-13 0
228 1 46.86 12.2976 0 -0.0098715 3.38174e-13 0
233 1 48.2799 12.2976 0 0.0098715 2.79554e-13 0
248 1 51.12 12.2976 0 -7.34758 3.26073e-13 0
4 1 25.56 14.7571 0 2.98704 -6.66134e-16 0
9 1 26.9799 14.7571 0 -3.79535 -9.37028e-14 0
138 1 27.69 13.5273 0 -0.0098715 -6.41709e-14 0
24 1 29.82 14.7571 0 -0.0098715 -7.34968e-14 0
143 1 29.1099 13.5273 0 0.0098715 -1.35003e-13 0
29 1 31.2399 14.7571 0 0.0098715 -8.12683e-14 0
158 1 31.95 13.5273 0 -0.0098715 -1.43885e-13 0
44 1 34.08 14.7571 0 -0.0098715 -1.06137e-13 0
163 1 33.3699 13.5273 0 0.0098715 -9.9476e-14 0
49 1 35.4999 14.7571 0 0.0098715 -1.04139e-13 0
178 1 36.21 13.5273 0 -0.0098715 -1.08802e-13 0
64 1 38.34 14.7571 0 -0.0098715 -1.07692e-13 0
183 1 37.6299 13.5273 0 0.0098715 -9.59233e-14 0
69 1 39.7599 14.7571 0 0.0098715 -1.0425e-13 0
198 1 40.47 13.5273 0 -0.0098715 -1.10134e-13 0
84 1 42.6 14.7571 0 -0.0098715 -1.0747e-13 0
203 1 41.8899 13.5273 0 0.0098715 -1.03029e-13 0
89 1 44.0199 14.7571 0 0.0098715 -1.04472e-13 0
218 1 44.73 13.5273 0 -0.0098715 -1.08136e-13 0
104 1 46.86 14.7571 0 -0.0098715 -1.08025e-13 0
223 1 46.1499 13.5273 0 0.0098715 -8.88178e-14 0
109 1 48.2799 14.7571 0 0.0098715 -7.82707e-14 0
238 1 48.99 13.5273 0 -0.0098715 -1.2812e-13 0
124 1 51.12 14.7571 0 -7.34758 -1.13132e-13 0
243 1 50.4099 13.5273 0 8.16576 -9.9476e-14 0
129 1 25.56 17.2166 0 2.98704 1.08802e-14 0
14 1 27.69 15.9868 0 -0.0098715 -2.08056e-13 0
134 1 26.9799 17.2166 0 -3.79535 3.52718e-13 0
19 1 29.1099 15.9868 0 0.0098715 -1.32672e-13 0
149 1 29.82 17.2166 0 -0.0098715 3.3229e-13 0
34 1 31.95 15.9868 0 -0.0098715 -1.99618e-13 0
154 1 31.2399 17.2166 0 0.0098715 4.17666e-13 0
39 1 33.3699 15.9868 0 0.0098715 -1.26676e-13 0
169 1 34.08 17.2166 0 -0.0098715 3.41838e-13 0
54 1 36.21 15.9868 0 -0.0098715 -1.37668e-13 0
174 1 35.4999 17.2166 0 0.0098715 3.45612e-13 0
59 1 37.6299 15.9868 0 0.0098715 -1.49769e-13 0
189 1 38.34 17.2166 0 -0.0098715 3.43836e-13 0
74 1 40.47 15.9868 0 -0.0098715 -1.37446e-13 0
194 1 39.7599 17.2166 0 0.0098715 3.45612e-13 0
79 1 41.8899 15.9868 0 0.0098715 -1.54654e-13 0
209 1 42.6 17.2166 0 -0.0098715 3.46168e-13 0
94 1 44.73 15.9868 0 -0.0098715 -1.3789e-13 0
214 1 44.0199 17.2166 0 0.0098715 3.43503e-13 0
99 1 46.1499 15.9868 0 0.0098715 -1.51545e-13 0
229 1 46.86 17.2166 0 -0.0098715 3.41727e-13 0
114 1 48.99 15.9868 0 -0.0098715 -1.38556e-13 0
234 1 48.2799 17.2166 0 0.0098715 3.48832e-13 0
119 1 50.4099 15.9868 0 8.16576 -1.72085e-13 0
249 1 51.12 17.2166 0 -7.34758 3.82916e-13 0
5 1 25.56 19.6761 0 2.98704 0 0
10 1 26.9799 19.6761 0 -3.79535 -3.31957e-14 0
139 1 27.69 18.4463 0 -0.0098715 -4.15223e-14 0
25 1 29.82 19.6761 0 -0.0098715 -3.06422e-14 0
144 1 29.1099 18.4463 0 0.0098715 -1.24345e-13 0
30 1 31.2399 19.6761 0 0.0098715 -2.17604e-14 0
159 1 31.95 18.4463 0 -0.0098715 -1.35225e-13 0
45 1 34.08 19.6761 0 -0.0098715 -3.27516e-14 0
164 1 33.3699 18.4463 0 0.0098715 -8.17124e-14 0
50 1 35.4999 19.6761 0 0.0098715 -2.89768e-14 0
179 1 36.21 18.4463 0 -0.0098715 -8.4599e-14 0
65 1 38.34 19.6761 0 -0.0098715 -3.25295e-14 0
184 1 37.6299 18.4463 0 0.0098715 -7.4607e-14 0
70 1 39.7599 19.6761 0 0.0098715 -2.89768e-14 0
199 1 40.47 18.4463 0 -0.0098715 -8.59313e-14 0
85 1 42.6 19.6761 0 -0.0098715 -2.44249e-14 0
204 1 41.8899 18.4463 0 0.0098715 -8.52651e-14 0
90 1 44.0199 19.6761 0 0.0098715 -2.93099e-14 0
219 1 44.73 18.4463 0 -0.0098715 -8.39329e-14 0
105 1 46.86 19.6761 0 -0.0098715 -3.28626e-14 0
224 1 46.1499 18.4463 0 0.0098715 -7.4607e-14 0
110 1 48.2799 19.6761 0 0.0098715 -3.0087e-14 0
239 1 48.99 18.4463 0 -0.0098715 -1.17684e-13 0
125 1 51.12 19.6761 0 -7.34758 -2.89768e-14 0
244 1 50.4099 18.4463 0 8.16576 -7.81597e-14 0
130 1 25.56 22.1356 0 2.98704 6.66134e-16 0
15 1 27.69 20.9059 0 -0.0098715 -1.34559e-13 0
135 1 26.9799 22.1356 0 -3.79535 1.35114e-13 0
20 1 29.1099 20.9059 0 0.0098715 -1.06026e-13 0
150 1 29.82 22.1356 0 -0.0098715 1.04028e-13 0
35 1 31.95 20.9059 0 -0.0098715 -1.29452e-13 0
155 1 31.2399 22.1356 0 0.0098715 1.34115e-13 0
40 1 33.3699 20.9059 0 0.0098715 -1.53322e-13 0
170 1 34.08 22.1356 0 -0.0098715 1.45772e-13 0
55 1 36.21 20.9059 0 -0.0098715 -1.47882e-13 0
175 1 35.4999 22.1356 0 0.0098715 1.51323e-13 0
60 1 37.6299 20.9059 0 0.0098715 -1.51545e-13 0
190 1 38.34 22.1356 0 -0.0098715 1.44218e-13 0
75 1 40.47 20.9059 0 -0.0098715 -1.43885e-13 0
195 1 39.7599 22.1356 0 0.0098715 1.51323e-13 0
80 1 41.8899 20.9059 0 0.0098715 -1.50546e-13 0
210 1 42.6 22.1356 0 -0.0098715 1.5532e-13 0
95 1 44.73 20.9059 0 -0.0098715 -1.48104e-13 0
215 1 44.0199 22.1356 0 0.0098715 1.47438e-13 0
100 1 46.1499 20.9059 0 0.0098715 -1.51545e-13 0
230 1 46.86 22.1356 0 -0.0098715 1.42109e-13 0
115 1 48.99 20.9059 0 -0.0098715 -1.15907e-13 0
235 1 48.2799 22.1356 0 0.0098715 1.08136e-13 0
120 1 50.4099 20.9059 0 8.16576 -1.51656e-13 0
250 1 51.12 22.1356 0 -7.34758 1.49547e-13 0
140 1 27.69 23.3654 0 -0.0098715 2.13163e-14 0
145 1 29.1099 23.3654 0 0.0098715 7.10543e-15 0
160 1 31.95 23.3654 0 -0.0098715 5.32907e-15 0
165 1 33.3699 23.3654 0 -0.00101771 0.0384413 -0.00737099
180 1 36.21 23.3654 0 -0.0098715 5.32907e-15 0
185 1 37.6299 23.3654 0 0.0098715 1.77636e-15 0
200 1 40.47 23.3654 0 -0.0098715 7.10543e-15 0
205 1 41.8899 23.3654 0 0.0098715 2.13163e-14 0
220 1 44.73 23.3654 0 -0.0098715 1.06581e-14 0
225 1 46.1499 23.3654 0 0.0098715 1.77636e-15 0
240 1 48.99 23.3654 0 -0.0098715 5.32907e-15 0
245 1 50.4099 23.3654 0 8.16576 7.10543e-15 0
