ITEM: TIMESTEP
55
ITEM: NUMBER OF ATOMS
50
ITEM: BOX BOUNDS pp pp pp
0.0000000000000000e+00 7.6680000000000007e+01
0.0000000000000000e+00 4.9190242934956201e+00
0.0000000000000000e+00 2.8399999999999999e+01
ITEM: ATOMS id type x y z
2 1 26.808 4.43819e-12 0
26 1 25.4563 2.45951 0
3 1 27.5445 1.22976 0
4 1 28.9782 1.22976 0
30 1 29.7036 2.45951 0
7 1 31.8639 1.22976 0
31 1 31.1387 2.45951 0
8 1 33.299 1.22976 0
34 1 34.0242 2.45951 0
10 1 35.4593 5.11714e-11 0
11 1 36.1845 1.22976 0
12 1 37.6195 1.22976 0
38 1 38.3448 2.45951 0
15 1 40.505 1.22976 0
39 1 39.7798 2.45951 0
16 1 41.9401 1.22976 0
17 1 42.6653 4.30412e-12 0
18 1 44.1004 7.14511e-11 0
19 1 44.8256 1.22976 0
20 1 46.2607 1.22976 0
46 1 46.9858 2.45951 0
22 1 48.4214 1.1142e-08 0
23 1 49.1428 1.22976 0
24 1 50.6103 1.22976 0
25 1 51.0965 3.18964e-07 0
1 1 25.4563 4.91902 0
27 1 26.808 2.45951 0
28 1 27.5445 3.68927 0
29 1 28.9782 3.68927 0
5 1 29.7036 4.91902 0
6 1 31.1387 4.91902 0
32 1 31.8639 3.68927 0
9 1 34.0242 4.91902 0
33 1 33.299 3.68927 0
35 1 35.4593 2.45951 0
36 1 36.1845 3.68927 0
13 1 38.3448 4.91902 0
37 1 37.6195 3.68927 0
14 1 39.7798 4.91902 0
40 1 40.505 3.68927 0
41 1 41.9401 3.68927 0
42 1 42.6653 2.45951 0
43 1 44.1004 2.45951 0
44 1 44.8256 3.68927 0
21 1 46.9858 4.91902 0
45 1 46.2607 3.68927 0
47 1 48.4214 2.45951 0
48 1 49.1428 3.68927 0
49 1 50.6103 3.68927 0
50 1 51.0965 2.45951 0
