ITEM: TIMESTEP
145
ITEM: NUMBER OF ATOMS
360
ITEM: BOX BOUNDS pp ff pp
0.0000000000000000e+00 1.2779999999999999e+01
0.0000000000000000e+00 7.3785364402434297e+01
0.0000000000000000e+00 1.0000000000000000e+01
ITEM: ATOMS id type fx fy fz
1 1 -3.06527e-06 6.70349e-07 0
2 1 3.06652e-06 6.71322e-07 0
3 1 -1.4698e-06 -1.82989e-06 0
4 1 1.47015e-06 -1.8306e-06 0
5 1 -3.06761e-06 6.71684e-07 0
6 1 3.06562e-06 6.7013e-07 0
7 1 -1.46331e-06 -1.82845e-06 0
8 1 1.46388e-06 -1.82964e-06 0
9 1 -3.06746e-06 6.70736e-07 0
10 1 3.06821e-06 6.71317e-07 0
11 1 -1.46644e-06 -1.83044e-06 0
12 1 1.46552e-06 -1.82855e-06 0
13 1 -6.30085e-08 -5.83845e-07 0
14 1 6.32186e-08 -5.83868e-07 0
15 1 9.32135e-08 -5.05158e-07 0
16 1 -9.31644e-08 -5.05199e-07 0
17 1 -6.32613e-08 -5.83624e-07 0
18 1 6.29258e-08 -5.83586e-07 0
19 1 9.3349e-08 -5.0546e-07 0
20 1 -9.32675e-08 -5.0553e-07 0
21 1 -6.29984e-08 -5.83177e-07 0
22 1 6.31239e-08 -5.83191e-07 0
23 1 9.31981e-08 -5.05433e-07 0
24 1 -9.33287e-08 -5.0532e-07 0
25 1 9.3002e-08 -6.18721e-07 0
26 1 -9.29646e-08 -6.18776e-07 0
27 1 1.55884e-07 3.94145e-09 0
28 1 -1.55883e-07 3.9471e-09 0
29 1 9.29812e-08 -6.18779e-07 0
30 1 -9.30418e-08 -6.1869e-07 0
31 1 1.55876e-07 3.93632e-09 0
32 1 -1.55876e-07 3.9453e-09 0
33 1 9.30707e-08 -6.18694e-07 0
34 1 -9.30479e-08 -6.18727e-07 0
35 1 1.55878e-07 3.95022e-09 0
36 1 -1.55879e-07 3.93345e-09 0
37 1 -3.02484e-07 -2.84022e-07 0
38 1 3.02485e-07 -2.8402e-07 0
41 1 -3.02486e-07 -2.84022e-07 0
42 1 3.02483e-07 -2.84026e-07 0
45 1 -3.02483e-07 -2.84029e-07 0
46 1 3.02484e-07 -2.84028e-07 0
49 1 -1.04326e-07 4.01732e-07 0
50 1 1.04327e-07 4.01733e-07 0
39 1 1.44417e-07 1.22028e-06 0
40 1 -1.44417e-07 1.22029e-06 0
53 1 -1.04327e-07 4.01732e-07 0
54 1 1.04327e-07 4.01732e-07 0
43 1 1.44419e-07 1.22029e-06 0
44 1 -1.44419e-07 1.22029e-06 0
47 1 1.44419e-07 1.22029e-06 0
57 1 -1.04328e-07 4.01731e-07 0
58 1 1.04327e-07 4.01733e-07 0
48 1 -1.44418e-07 1.22029e-06 0
61 1 -3.07228e-07 -4.56136e-07 0
62 1 3.07228e-07 -4.56135e-07 0
51 1 5.78826e-07 6.5504e-07 0
52 1 -5.78826e-07 6.5504e-07 0
65 1 -3.07228e-07 -4.56135e-07 0
66 1 3.07228e-07 -4.56136e-07 0
55 1 5.78826e-07 6.5504e-07 0
56 1 -5.78826e-07 6.5504e-07 0
59 1 5.78826e-07 6.55041e-07 0
69 1 -3.07228e-07 -4.56135e-07 0
70 1 3.07228e-07 -4.56137e-07 0
60 1 -5.78826e-07 6.5504e-07 0
63 1 5.22644e-07 7.2756e-07 0
64 1 -5.22644e-07 7.2756e-07 0
67 1 5.22644e-07 7.2756e-07 0
68 1 -5.22644e-07 7.2756e-07 0
71 1 5.22644e-07 7.27561e-07 0
72 1 -5.22643e-07 7.2756e-07 0
73 1 3.89712e-07 -5.22527e-07 0
74 1 -3.89713e-07 -5.22527e-07 0
75 1 1.65617e-07 -5.7506e-07 0
76 1 -1.65617e-07 -5.7506e-07 0
77 1 3.89713e-07 -5.22527e-07 0
78 1 -3.89713e-07 -5.22526e-07 0
79 1 1.65617e-07 -5.75061e-07 0
80 1 -1.65618e-07 -5.7506e-07 0
81 1 3.89713e-07 -5.22527e-07 0
82 1 -3.89713e-07 -5.22527e-07 0
83 1 1.65617e-07 -5.75061e-07 0
84 1 -1.65617e-07 -5.7506e-07 0
85 1 -1.30983e-07 -6.50474e-07 0
86 1 1.30983e-07 -6.50473e-07 0
87 1 -4.39301e-07 -1.80588e-07 0
88 1 4.39302e-07 -1.80587e-07 0
89 1 -1.30983e-07 -6.50472e-07 0
90 1 1.30984e-07 -6.50473e-07 0
91 1 -4.39302e-07 -1.80587e-07 0
92 1 4.39302e-07 -1.80589e-07 0
93 1 -1.30983e-07 -6.50472e-07 0
94 1 1.30983e-07 -6.50472e-07 0
95 1 -4.39302e-07 -1.80588e-07 0
96 1 4.39301e-07 -1.80587e-07 0
97 1 -1.92673e-07 6.61585e-07 0
98 1 1.92673e-07 6.61585e-07 0
99 1 -3.58386e-07 3.45049e-07 0
100 1 3.58386e-07 3.45049e-07 0
101 1 -1.92674e-07 6.61584e-07 0
102 1 1.92673e-07 6.61585e-07 0
103 1 -3.58385e-07 3.45048e-07 0
104 1 3.58385e-07 3.45049e-07 0
105 1 -1.92674e-07 6.61585e-07 0
106 1 1.92674e-07 6.61584e-07 0
107 1 -3.58386e-07 3.45049e-07 0
108 1 3.58386e-07 3.45048e-07 0
109 1 -1.54124e-08 6.63765e-07 0
110 1 1.54125e-08 6.63764e-07 0
113 1 -1.54131e-08 6.63765e-07 0
114 1 1.54126e-08 6.63764e-07 0
117 1 -1.54125e-08 6.63763e-07 0
118 1 1.54128e-08 6.63765e-07 0
121 1 -1.22027e-07 1.00936e-06 0
122 1 1.22027e-07 1.00936e-06 0
111 1 8.3175e-08 3.30921e-07 0
112 1 -8.31745e-08 3.30921e-07 0
125 1 -1.22026e-07 1.00936e-06 0
126 1 1.22027e-07 1.00936e-06 0
115 1 8.31745e-08 3.30923e-07 0
116 1 -8.31747e-08 3.30921e-07 0
119 1 8.31746e-08 3.30921e-07 0
129 1 -1.22027e-07 1.00936e-06 0
130 1 1.22026e-07 1.00936e-06 0
120 1 -8.31748e-08 3.30921e-07 0
133 1 6.63137e-07 -4.39215e-07 0
134 1 -6.63137e-07 -4.39216e-07 0
123 1 1.32736e-07 1.18146e-06 0
124 1 -1.32736e-07 1.18146e-06 0
137 1 6.63138e-07 -4.39216e-07 0
138 1 -6.63138e-07 -4.39214e-07 0
127 1 1.32736e-07 1.18146e-06 0
128 1 -1.32735e-07 1.18146e-06 0
131 1 1.32736e-07 1.18146e-06 0
141 1 6.63138e-07 -4.39216e-07 0
142 1 -6.63138e-07 -4.39216e-07 0
132 1 -1.32736e-07 1.18146e-06 0
135 1 -5.32289e-07 1.99577e-07 0
136 1 5.32289e-07 1.99575e-07 0
139 1 -5.3229e-07 1.99575e-07 0
140 1 5.32289e-07 1.99576e-07 0
143 1 -5.32288e-07 1.99575e-07 0
144 1 5.32289e-07 1.99575e-07 0
145 1 2.57253e-07 -6.7876e-07 0
146 1 -2.57252e-07 -6.78759e-07 0
147 1 -3.75718e-07 1.54081e-06 0
148 1 3.75718e-07 1.54081e-06 0
149 1 2.57252e-07 -6.78758e-07 0
150 1 -2.57252e-07 -6.7876e-07 0
151 1 -3.75718e-07 1.54081e-06 0
152 1 3.75718e-07 1.54081e-06 0
153 1 2.57253e-07 -6.78758e-07 0
154 1 -2.57253e-07 -6.78759e-07 0
155 1 -3.75718e-07 1.54081e-06 0
156 1 3.75718e-07 1.54081e-06 0
157 1 6.70233e-08 -3.4989e-09 0
158 1 -6.70239e-08 -3.49843e-09 0
159 1 3.19612e-07 1.27408e-06 0
160 1 -3.19612e-07 1.27409e-06 0
161 1 6.70223e-08 -3.49977e-09 0
162 1 -6.70226e-08 -3.49797e-09 0
163 1 3.19612e-07 1.27408e-06 0
164 1 -3.19612e-07 1.27409e-06 0
165 1 6.7023e-08 -3.4979e-09 0
166 1 -6.70219e-08 -3.49938e-09 0
167 1 3.19611e-07 1.27408e-06 0
168 1 -3.19612e-07 1.27408e-06 0
169 1 1.13703e-07 -1.69512e-06 0
170 1 -1.13702e-07 -1.69512e-06 0
171 1 -2.81263e-07 2.36697e-07 0
172 1 2.81263e-07 2.36696e-07 0
173 1 1.13701e-07 -1.69512e-06 0
174 1 -1.13702e-07 -1.69512e-06 0
175 1 -2.81262e-07 2.36699e-07 0
176 1 2.81262e-07 2.36698e-07 0
177 1 1.13702e-07 -1.69512e-06 0
178 1 -1.13701e-07 -1.69512e-06 0
179 1 -2.81262e-07 2.36696e-07 0
180 1 2.81262e-07 2.36698e-07 0
181 1 -2.81263e-07 -2.36698e-07 0
182 1 2.81262e-07 -2.36696e-07 0
185 1 -2.81262e-07 -2.36696e-07 0
186 1 2.81262e-07 -2.36699e-07 0
189 1 -2.81263e-07 -2.36697e-07 0
190 1 2.81262e-07 -2.36698e-07 0
193 1 3.19611e-07 -1.27408e-06 0
194 1 -3.19611e-07 -1.27408e-06 0
183 1 1.13703e-07 1.69512e-06 0
184 1 -1.13703e-07 1.69512e-06 0
197 1 3.19612e-07 -1.27408e-06 0
198 1 -3.19611e-07 -1.27408e-06 0
187 1 1.13702e-07 1.69512e-06 0
188 1 -1.13701e-07 1.69512e-06 0
191 1 1.13702e-07 1.69512e-06 0
201 1 3.19613e-07 -1.27409e-06 0
202 1 -3.19612e-07 -1.27408e-06 0
192 1 -1.13702e-07 1.69512e-06 0
205 1 -3.75718e-07 -1.54081e-06 0
206 1 3.75717e-07 -1.54081e-06 0
195 1 6.70223e-08 3.49921e-09 0
196 1 -6.7023e-08 3.49812e-09 0
209 1 -3.75718e-07 -1.54081e-06 0
210 1 3.75718e-07 -1.54081e-06 0
199 1 6.70222e-08 3.49746e-09 0
200 1 -6.70227e-08 3.50073e-09 0
203 1 6.70231e-08 3.49743e-09 0
213 1 -3.75718e-07 -1.54081e-06 0
214 1 3.75718e-07 -1.54081e-06 0
204 1 -6.70218e-08 3.49927e-09 0
207 1 2.57253e-07 6.7876e-07 0
208 1 -2.57252e-07 6.78758e-07 0
211 1 2.57253e-07 6.7876e-07 0
212 1 -2.57253e-07 6.78758e-07 0
215 1 2.57252e-07 6.78759e-07 0
216 1 -2.57254e-07 6.78759e-07 0
217 1 -5.32288e-07 -1.99574e-07 0
218 1 5.32289e-07 -1.99576e-07 0
219 1 6.63138e-07 4.39214e-07 0
220 1 -6.63137e-07 4.39216e-07 0
221 1 -5.32289e-07 -1.99575e-07 0
222 1 5.32289e-07 -1.99576e-07 0
223 1 6.63138e-07 4.39216e-07 0
224 1 -6.63138e-07 4.39216e-07 0
225 1 -5.3229e-07 -1.99575e-07 0
226 1 5.3229e-07 -1.99576e-07 0
227 1 6.63137e-07 4.39217e-07 0
228 1 -6.63138e-07 4.39214e-07 0
229 1 1.32736e-07 -1.18146e-06 0
230 1 -1.32736e-07 -1.18146e-06 0
231 1 -1.22027e-07 -1.00936e-06 0
232 1 1.22026e-07 -1.00936e-06 0
233 1 1.32736e-07 -1.18146e-06 0
234 1 -1.32736e-07 -1.18146e-06 0
235 1 -1.22027e-07 -1.00936e-06 0
236 1 1.22027e-07 -1.00936e-06 0
237 1 1.32737e-07 -1.18146e-06 0
238 1 -1.32736e-07 -1.18146e-06 0
239 1 -1.22026e-07 -1.00937e-06 0
240 1 1.22027e-07 -1.00936e-06 0
241 1 8.31743e-08 -3.30922e-07 0
242 1 -8.31743e-08 -3.30922e-07 0
243 1 -1.54128e-08 -6.63764e-07 0
244 1 1.54126e-08 -6.63764e-07 0
245 1 8.31753e-08 -3.3092e-07 0
246 1 -8.31747e-08 -3.30922e-07 0
247 1 -1.54135e-08 -6.63764e-07 0
248 1 1.54132e-08 -6.63765e-07 0
249 1 8.31746e-08 -3.30922e-07 0
250 1 -8.31758e-08 -3.30921e-07 0
251 1 -1.54121e-08 -6.63762e-07 0
252 1 1.54128e-08 -6.63765e-07 0
253 1 -3.58385e-07 -3.45049e-07 0
254 1 3.58386e-07 -3.45048e-07 0
257 1 -3.58386e-07 -3.45049e-07 0
258 1 3.58385e-07 -3.45048e-07 0
261 1 -3.58386e-07 -3.45048e-07 0
262 1 3.58386e-07 -3.4505e-07 0
265 1 -4.39301e-07 1.80586e-07 0
266 1 4.39301e-07 1.80589e-07 0
255 1 -1.92674e-07 -6.61586e-07 0
256 1 1.92674e-07 -6.61585e-07 0
269 1 -4.39302e-07 1.80589e-07 0
270 1 4.39301e-07 1.80587e-07 0
259 1 -1.92672e-07 -6.61585e-07 0
260 1 1.92673e-07 -6.61584e-07 0
263 1 -1.92674e-07 -6.61585e-07 0
273 1 -4.39302e-07 1.80586e-07 0
274 1 4.39303e-07 1.80589e-07 0
264 1 1.92674e-07 -6.61582e-07 0
277 1 1.65617e-07 5.75062e-07 0
278 1 -1.65618e-07 5.7506e-07 0
267 1 -1.30983e-07 6.50472e-07 0
268 1 1.30984e-07 6.50472e-07 0
281 1 1.65617e-07 5.75061e-07 0
282 1 -1.65617e-07 5.7506e-07 0
271 1 -1.30983e-07 6.50473e-07 0
272 1 1.30983e-07 6.50474e-07 0
275 1 -1.30985e-07 6.50473e-07 0
285 1 1.65617e-07 5.75059e-07 0
286 1 -1.65617e-07 5.75058e-07 0
276 1 1.30983e-07 6.50472e-07 0
279 1 3.89713e-07 5.22526e-07 0
280 1 -3.89713e-07 5.22527e-07 0
283 1 3.89713e-07 5.22528e-07 0
284 1 -3.89713e-07 5.22526e-07 0
287 1 3.89714e-07 5.22529e-07 0
288 1 -3.89713e-07 5.22525e-07 0
289 1 5.22643e-07 -7.27561e-07 0
290 1 -5.22643e-07 -7.27558e-07 0
291 1 -3.07227e-07 4.56134e-07 0
292 1 3.07226e-07 4.56136e-07 0
293 1 5.22645e-07 -7.2756e-07 0
294 1 -5.22644e-07 -7.27562e-07 0
295 1 -3.07229e-07 4.56136e-07 0
296 1 3.07229e-07 4.56136e-07 0
297 1 5.22645e-07 -7.2756e-07 0
298 1 -5.22645e-07 -7.27561e-07 0
299 1 -3.07228e-07 4.56135e-07 0
300 1 3.07229e-07 4.56136e-07 0
301 1 5.78824e-07 -6.5504e-07 0
302 1 -5.78826e-07 -6.55042e-07 0
303 1 -1.04328e-07 -4.01729e-07 0
304 1 1.04328e-07 -4.01732e-07 0
305 1 5.78828e-07 -6.5504e-07 0
306 1 -5.78825e-07 -6.55039e-07 0
307 1 -1.04328e-07 -4.01732e-07 0
308 1 1.04327e-07 -4.01734e-07 0
309 1 5.78826e-07 -6.5504e-07 0
310 1 -5.78827e-07 -6.5504e-07 0
311 1 -1.04325e-07 -4.01733e-07 0
312 1 1.04326e-07 -4.01734e-07 0
313 1 1.44416e-07 -1.22028e-06 0
314 1 -1.44419e-07 -1.22029e-06 0
315 1 -3.02484e-07 2.84034e-07 0
316 1 3.02479e-07 2.84046e-07 0
317 1 1.44423e-07 -1.22029e-06 0
318 1 -1.44421e-07 -1.22029e-06 0
319 1 -3.02478e-07 2.84034e-07 0
320 1 3.02489e-07 2.84017e-07 0
321 1 1.44416e-07 -1.22028e-06 0
322 1 -1.44414e-07 -1.22028e-06 0
323 1 -3.02489e-07 2.84002e-07 0
324 1 3.02484e-07 2.84012e-07 0
325 1 1.55885e-07 -3.90899e-09 0
326 1 -1.55878e-07 -3.97571e-09 0
329 1 1.55859e-07 -3.9532e-09 0
330 1 -1.55863e-07 -3.91816e-09 0
333 1 1.55893e-07 -3.96918e-09 0
334 1 -1.55896e-07 -3.92771e-09 0
337 1 9.35203e-08 5.05059e-07 0
338 1 -9.29494e-08 5.05543e-07 0
327 1 9.31029e-08 6.18756e-07 0
328 1 -9.32492e-08 6.18545e-07 0
341 1 9.3395e-08 5.06174e-07 0
342 1 -9.36504e-08 5.05954e-07 0
331 1 9.31634e-08 6.18532e-07 0
332 1 -9.28988e-08 6.18918e-07 0
335 1 9.27873e-08 6.18903e-07 0
345 1 9.28447e-08 5.04821e-07 0
346 1 -9.31605e-08 5.04548e-07 0
336 1 -9.29072e-08 6.18731e-07 0
349 1 -1.46552e-06 1.82565e-06 0
350 1 1.46951e-06 1.83392e-06 0
339 1 -6.33853e-08 5.82182e-07 0
340 1 6.25755e-08 5.82091e-07 0
353 1 -1.45301e-06 1.82874e-06 0
354 1 1.45124e-06 1.82505e-06 0
343 1 -6.235e-08 5.83363e-07 0
344 1 6.38112e-08 5.83523e-07 0
347 1 -6.353e-08 5.85104e-07 0
357 1 -1.48101e-06 1.8344e-06 0
358 1 1.4788e-06 1.82982e-06 0
348 1 6.28785e-08 5.85027e-07 0
351 1 -3.07326e-06 -6.73202e-07 0
352 1 3.06846e-06 -6.69448e-07 0
355 1 -3.06276e-06 -6.6757e-07 0
356 1 3.07142e-06 -6.7434e-07 0
359 1 -3.06434e-06 -6.72002e-07 0
360 1 3.06047e-06 -6.68981e-07 0
