ITEM: TIMESTEP
0
ITEM: NUMBER OF ATOMS
360
ITEM: BOX BOUNDS pp ff pp
0.0000000000000000e+00 1.2779999999999999e+01
0.0000000000000000e+00 7.3785364402434297e+01
0.0000000000000000e+00 1.0000000000000000e+01
ITEM: ATOMS id type fx fy fz
1 1 4.95153 2.39602 0
2 1 -4.95153 2.39602 0
3 1 2.78377 -3.09879 0
4 1 -2.78377 -3.09879 0
5 1 4.95153 2.39602 0
6 1 -4.95153 2.39602 0
7 1 2.78377 -3.09879 0
8 1 -2.78377 -3.09879 0
9 1 4.95153 2.39602 0
10 1 -4.95153 2.39602 0
11 1 2.78377 -3.09879 0
12 1 -2.78377 -3.09879 0
13 1 -0.0098715 5.32907e-14 0
14 1 0.0098715 -4.44089e-14 0
15 1 -0.0098715 3.45279e-14 0
16 1 0.0098715 4.24105e-14 0
17 1 -0.0098715 2.22045e-16 0
18 1 0.0098715 -3.84137e-14 0
19 1 -0.0098715 5.05151e-14 0
20 1 0.0098715 5.40679e-14 0
21 1 -0.0098715 -4.95159e-14 0
22 1 0.0098715 4.9627e-14 0
23 1 -0.0098715 -4.08562e-14 0
24 1 0.0098715 -3.90799e-14 0
25 1 -0.0098715 -7.10543e-15 0
26 1 0.0098715 -6.21725e-15 0
27 1 -0.0098715 -1.9762e-14 0
28 1 0.0098715 -3.08642e-14 0
29 1 -0.0098715 -4.44089e-16 0
30 1 0.0098715 5.55112e-15 0
31 1 -0.0098715 -3.40838e-14 0
32 1 0.0098715 -3.76366e-14 0
33 1 -0.0098715 1.11022e-15 0
34 1 0.0098715 -1.77636e-15 0
35 1 -0.0098715 2.45359e-14 0
36 1 0.0098715 2.84217e-14 0
37 1 -0.0098715 2.13163e-14 0
38 1 0.0098715 8.37108e-14 0
41 1 -0.0098715 2.4869e-14 0
42 1 0.0098715 1.10689e-13 0
45 1 -0.0098715 1.0536e-13 0
46 1 0.0098715 2.06501e-14 0
49 1 -0.0098715 0 0
50 1 0.0098715 1.22125e-15 0
39 1 -0.0098715 -8.43769e-14 0
40 1 0.0098715 -3.9746e-14 0
53 1 -0.0098715 2.22045e-15 0
54 1 0.0098715 -2.10942e-15 0
43 1 -0.0098715 -9.99201e-14 0
44 1 0.0098715 -1.07914e-13 0
47 1 -0.0098715 -2.9754e-14 0
57 1 -0.0098715 -3.33067e-16 0
58 1 0.0098715 -4.996e-15 0
48 1 0.0098715 -2.84217e-14 0
61 1 -0.0098715 -2.84217e-14 0
62 1 0.0098715 -8.16014e-14 0
51 1 -0.0098715 8.79297e-14 0
52 1 0.0098715 3.61933e-14 0
65 1 -0.0098715 -4.21885e-14 0
66 1 0.0098715 -1.15019e-13 0
55 1 -0.0098715 1.03473e-13 0
56 1 0.0098715 9.64784e-14 0
59 1 -0.0098715 2.62013e-14 0
69 1 -0.0098715 -1.11466e-13 0
70 1 0.0098715 -2.78666e-14 0
60 1 0.0098715 2.13163e-14 0
63 1 -0.0098715 1.55431e-15 0
64 1 0.0098715 -4.21885e-15 0
67 1 -0.0098715 -2.10942e-15 0
68 1 0.0098715 -2.10942e-15 0
71 1 -0.0098715 -3.33067e-16 0
72 1 0.0098715 0 0
73 1 -0.0098715 2.4869e-14 0
74 1 0.0098715 8.92619e-14 0
75 1 -0.0098715 -1.40998e-14 0
76 1 0.0098715 -1.96509e-14 0
77 1 -0.0098715 4.61853e-14 0
78 1 0.0098715 1.16129e-13 0
79 1 -0.0098715 -1.65423e-14 0
80 1 0.0098715 -2.0095e-14 0
81 1 -0.0098715 1.14353e-13 0
82 1 0.0098715 2.88658e-14 0
83 1 -0.0098715 -3.55271e-15 0
84 1 0.0098715 -3.55271e-15 0
85 1 -0.0098715 -8.88178e-14 0
86 1 0.0098715 -1.69309e-13 0
87 1 -0.0098715 1.73195e-13 0
88 1 0.0098715 1.09135e-13 0
89 1 -0.0098715 -1.08358e-13 0
90 1 0.0098715 -1.81188e-13 0
91 1 -0.0098715 1.6942e-13 0
92 1 0.0098715 1.67644e-13 0
93 1 -0.0098715 -1.74305e-13 0
94 1 0.0098715 -9.04832e-14 0
95 1 -0.0098715 9.37028e-14 0
96 1 0.0098715 9.23706e-14 0
97 1 -0.0098715 -3.55271e-15 0
98 1 0.0098715 1.44329e-15 0
99 1 -0.0098715 -1.68865e-13 0
100 1 0.0098715 -1.12355e-13 0
101 1 -0.0098715 1.11022e-15 0
102 1 0.0098715 2.9976e-15 0
103 1 -0.0098715 -1.72307e-13 0
104 1 0.0098715 -1.7053e-13 0
105 1 -0.0098715 -4.44089e-16 0
106 1 0.0098715 -2.55351e-15 0
107 1 -0.0098715 -1.00031e-13 0
108 1 0.0098715 -1.03029e-13 0
109 1 -0.0098715 8.88178e-14 0
110 1 0.0098715 1.72751e-13 0
113 1 -0.0098715 1.08469e-13 0
114 1 0.0098715 1.76525e-13 0
117 1 -0.0098715 1.78302e-13 0
118 1 0.0098715 9.10383e-14 0
121 1 -0.0098715 -8.88178e-14 0
122 1 0.0098715 -1.74638e-13 0
111 1 -0.0098715 3.55271e-15 0
112 1 0.0098715 1.66533e-15 0
125 1 -0.0098715 -1.09468e-13 0
126 1 0.0098715 -1.77636e-13 0
115 1 -0.0098715 7.10543e-15 0
116 1 0.0098715 -2.33147e-15 0
119 1 -0.0098715 -1.77636e-15 0
129 1 -0.0098715 -1.75859e-13 0
130 1 0.0098715 -9.04832e-14 0
120 1 0.0098715 0 0
133 1 -0.0098715 -3.55271e-15 0
134 1 0.0098715 1.44329e-15 0
123 1 -0.0098715 1.73195e-13 0
124 1 0.0098715 1.07359e-13 0
137 1 -0.0098715 9.99201e-16 0
138 1 0.0098715 2.9976e-15 0
127 1 -0.0098715 1.71863e-13 0
128 1 0.0098715 1.6942e-13 0
131 1 -0.0098715 9.41469e-14 0
141 1 -0.0098715 -5.55112e-16 0
142 1 0.0098715 -2.55351e-15 0
132 1 0.0098715 9.23706e-14 0
135 1 -0.0098715 -1.68865e-13 0
136 1 0.0098715 -1.10578e-13 0
139 1 -0.0098715 -1.72307e-13 0
140 1 0.0098715 -1.74083e-13 0
143 1 -0.0098715 -1.00031e-13 0
144 1 0.0098715 -9.59233e-14 0
145 1 -0.0098715 8.88178e-14 0
146 1 0.0098715 1.72751e-13 0
147 1 -0.0098715 2.22045e-14 0
148 1 0.0098715 2.74225e-14 0
149 1 -0.0098715 1.0747e-13 0
150 1 0.0098715 1.76525e-13 0
151 1 -0.0098715 2.73115e-14 0
152 1 0.0098715 2.19824e-14 0
153 1 -0.0098715 1.75859e-13 0
154 1 0.0098715 9.10383e-14 0
155 1 -0.0098715 8.43769e-15 0
156 1 0.0098715 7.10543e-15 0
157 1 -0.0098715 -7.10543e-15 0
158 1 0.0098715 2.22045e-15 0
159 1 -0.0098715 -3.0087e-14 0
160 1 0.0098715 -3.37508e-14 0
161 1 -0.0098715 8.88178e-16 0
162 1 0.0098715 4.21885e-15 0
163 1 -0.0098715 -2.53131e-14 0
164 1 0.0098715 -3.24185e-14 0
165 1 -0.0098715 6.66134e-16 0
166 1 0.0098715 -1.33227e-15 0
167 1 -0.0098715 -3.78586e-14 0
168 1 0.0098715 -3.90799e-14 0
169 1 -0.0098715 -2.45137e-13 0
170 1 0.0098715 -2.9643e-13 0
171 1 -0.0098715 3.01092e-13 0
172 1 0.0098715 2.38809e-13 0
173 1 -0.0098715 -2.32481e-13 0
174 1 0.0098715 -3.04756e-13 0
175 1 -0.0098715 2.93765e-13 0
176 1 0.0098715 2.99094e-13 0
177 1 -0.0098715 -3.03979e-13 0
178 1 0.0098715 -2.45026e-13 0
179 1 -0.0098715 2.53575e-13 0
180 1 0.0098715 2.55795e-13 0
181 1 -0.0098715 3.19744e-14 0
182 1 0.0098715 3.24185e-14 0
185 1 -0.0098715 3.56382e-14 0
186 1 0.0098715 3.44169e-14 0
189 1 -0.0098715 3.08642e-14 0
190 1 0.0098715 3.41949e-14 0
193 1 -0.0098715 -3.55271e-15 0
194 1 0.0098715 4.44089e-16 0
183 1 -0.0098715 3.55271e-15 0
184 1 0.0098715 2.55351e-15 0
197 1 -0.0098715 1.88738e-15 0
198 1 0.0098715 2.44249e-15 0
187 1 -0.0098715 1.06581e-14 0
188 1 0.0098715 -1.11022e-15 0
191 1 -0.0098715 -2.22045e-15 0
201 1 -0.0098715 6.66134e-16 0
202 1 0.0098715 -1.33227e-15 0
192 1 0.0098715 -7.10543e-15 0
205 1 -0.0098715 -3.90799e-14 0
206 1 0.0098715 -3.05311e-14 0
195 1 -0.0098715 3.55271e-15 0
196 1 0.0098715 2.55351e-15 0
209 1 -0.0098715 -3.26406e-14 0
210 1 0.0098715 -2.88658e-14 0
199 1 -0.0098715 1.06581e-14 0
200 1 0.0098715 -1.11022e-15 0
203 1 -0.0098715 -2.22045e-15 0
213 1 -0.0098715 -3.06422e-14 0
214 1 0.0098715 -3.68594e-14 0
204 1 0.0098715 -7.10543e-15 0
207 1 -0.0098715 -2.99538e-13 0
208 1 0.0098715 -2.34146e-13 0
211 1 -0.0098715 -2.95874e-13 0
212 1 0.0098715 -3.01204e-13 0
215 1 -0.0098715 -2.54574e-13 0
216 1 0.0098715 -2.59348e-13 0
217 1 -0.0098715 2.38032e-13 0
218 1 0.0098715 2.97096e-13 0
219 1 -0.0098715 3.28626e-14 0
220 1 0.0098715 3.63043e-14 0
221 1 -0.0098715 2.35145e-13 0
222 1 0.0098715 3.02647e-13 0
223 1 -0.0098715 3.44169e-14 0
224 1 0.0098715 3.08642e-14 0
225 1 -0.0098715 3.01981e-13 0
226 1 0.0098715 2.42029e-13 0
227 1 -0.0098715 3.33067e-14 0
228 1 0.0098715 2.84217e-14 0
229 1 -0.0098715 -7.10543e-15 0
230 1 0.0098715 2.22045e-15 0
231 1 -0.0098715 8.88178e-16 0
232 1 0.0098715 7.77156e-16 0
233 1 -0.0098715 8.88178e-16 0
234 1 0.0098715 4.21885e-15 0
235 1 -0.0098715 5.9952e-15 0
236 1 0.0098715 -1.11022e-15 0
237 1 -0.0098715 6.66134e-16 0
238 1 0.0098715 -1.33227e-15 0
239 1 -0.0098715 -2.22045e-15 0
240 1 0.0098715 -7.10543e-15 0
241 1 -0.0098715 -3.90799e-14 0
242 1 0.0098715 -2.87548e-14 0
243 1 -0.0098715 -2.99538e-13 0
244 1 0.0098715 -2.37699e-13 0
245 1 -0.0098715 -3.24185e-14 0
246 1 0.0098715 -2.70894e-14 0
247 1 -0.0098715 -2.95874e-13 0
248 1 0.0098715 -2.99427e-13 0
249 1 -0.0098715 -3.04201e-14 0
250 1 0.0098715 -3.68594e-14 0
251 1 -0.0098715 -2.54574e-13 0
252 1 0.0098715 -2.59348e-13 0
253 1 -0.0098715 2.38032e-13 0
254 1 0.0098715 2.97096e-13 0
257 1 -0.0098715 2.39919e-13 0
258 1 0.0098715 3.04423e-13 0
261 1 -0.0098715 3.062e-13 0
262 1 0.0098715 2.42029e-13 0
265 1 -0.0098715 -3.55271e-15 0
266 1 0.0098715 4.44089e-16 0
255 1 -0.0098715 3.19744e-14 0
256 1 0.0098715 3.45279e-14 0
269 1 -0.0098715 1.88738e-15 0
270 1 0.0098715 2.44249e-15 0
259 1 -0.0098715 3.90799e-14 0
260 1 0.0098715 2.73115e-14 0
263 1 -0.0098715 3.33067e-14 0
273 1 -0.0098715 6.66134e-16 0
274 1 0.0098715 -1.33227e-15 0
264 1 0.0098715 2.84217e-14 0
277 1 -0.0098715 -3.90799e-14 0
278 1 0.0098715 -3.05311e-14 0
267 1 -0.0098715 3.55271e-15 0
268 1 0.0098715 2.55351e-15 0
281 1 -0.0098715 -3.26406e-14 0
282 1 0.0098715 -2.88658e-14 0
271 1 -0.0098715 1.06581e-14 0
272 1 0.0098715 -1.11022e-15 0
275 1 -0.0098715 -2.22045e-15 0
285 1 -0.0098715 -3.06422e-14 0
286 1 0.0098715 -3.68594e-14 0
276 1 0.0098715 -7.10543e-15 0
279 1 -0.0098715 -2.99538e-13 0
280 1 0.0098715 -2.34146e-13 0
283 1 -0.0098715 -2.95874e-13 0
284 1 0.0098715 -3.01204e-13 0
287 1 -0.0098715 -2.54574e-13 0
288 1 0.0098715 -2.59348e-13 0
289 1 -0.0098715 2.38032e-13 0
290 1 0.0098715 2.97096e-13 0
291 1 -0.0098715 3.28626e-14 0
292 1 0.0098715 3.63043e-14 0
293 1 -0.0098715 2.35145e-13 0
294 1 0.0098715 3.02647e-13 0
295 1 -0.0098715 3.44169e-14 0
296 1 0.0098715 3.08642e-14 0
297 1 -0.0098715 3.01981e-13 0
298 1 0.0098715 2.42029e-13 0
299 1 -0.0098715 3.33067e-14 0
300 1 0.0098715 2.84217e-14 0
301 1 -0.0098715 -7.10543e-15 0
302 1 0.0098715 2.22045e-15 0
303 1 -0.0098715 8.88178e-16 0
304 1 0.0098715 7.77156e-16 0
305 1 -0.0098715 8.88178e-16 0
306 1 0.0098715 4.21885e-15 0
307 1 -0.0098715 5.9952e-15 0
308 1 0.0098715 -1.11022e-15 0
309 1 -0.0098715 6.66134e-16 0
310 1 0.0098715 -1.33227e-15 0
311 1 -0.0098715 -2.22045e-15 0
312 1 0.0098715 -7.10543e-15 0
313 1 -0.0098715 -7.10543e-15 0
314 1 0.0098715 2.22045e-15 0
315 1 -0.0098715 8.88178e-16 0
316 1 0.0098715 7.77156e-16 0
317 1 -0.0098715 8.88178e-16 0
318 1 0.0098715 4.21885e-15 0
319 1 -0.0098715 5.9952e-15 0
320 1 0.0098715 -1.11022e-15 0
321 1 -0.0098715 6.66134e-16 0
322 1 0.0098715 -1.33227e-15 0
323 1 -0.0098715 -2.22045e-15 0
324 1 0.0098715 -7.10543e-15 0
325 1 -0.0098715 -3.55271e-15 0
326 1 0.0098715 2.22045e-15 0
329 1 -0.0098715 1.88738e-15 0
330 1 0.0098715 4.21885e-15 0
333 1 -0.0098715 6.66134e-16 0
334 1 0.0098715 -1.33227e-15 0
337 1 -0.0098715 -5.68434e-14 0
338 1 0.0098715 -4.77396e-14 0
327 1 -0.0098715 3.55271e-15 0
328 1 0.0098715 2.55351e-15 0
341 1 -0.0098715 -5.14033e-14 0
342 1 0.0098715 -4.79616e-14 0
331 1 -0.0098715 1.06581e-14 0
332 1 0.0098715 -1.11022e-15 0
335 1 -0.0098715 -2.22045e-15 0
345 1 -0.0098715 -4.9738e-14 0
346 1 0.0098715 -5.42899e-14 0
336 1 0.0098715 -7.10543e-15 0
349 1 2.78377 3.09879 0
350 1 -2.78377 3.09879 0
339 1 -0.0098715 -4.9627e-13 0
340 1 0.0098715 -4.30878e-13 0
353 1 2.78377 3.09879 0
354 1 -2.78377 3.09879 0
343 1 -0.0098715 -4.93827e-13 0
344 1 0.0098715 -4.99156e-13 0
347 1 -0.0098715 -4.83391e-13 0
357 1 2.78377 3.09879 0
358 1 -2.78377 3.09879 0
348 1 0.0098715 -4.86722e-13 0
351 1 4.95153 -2.39602 0
352 1 -4.95153 -2.39602 0
355 1 4.95153 -2.39602 0
356 1 -4.95153 -2.39602 0
359 1 4.95153 -2.39602 0
360 1 -4.95153 -2.39602 0
