LAMMPS data file via write_data, version 2 Aug 2023, timestep = 0, units = metal

50 atoms
1 atom types

0 76.68 xlo xhi
0 4.91902429349562 ylo yhi
0 28.4 zlo zhi
0 0 0 xy xz yz

Masses

1 12.011

Atoms # atomic

1 1 25.56 0 0 0 0 0
2 1 26.979858 0 0 0 0 0
3 1 27.689999999999998 1.229756073373905 0 0 0 0
4 1 29.109858 1.229756073373905 0 0 0 0
5 1 29.82 0 0 0 0 0
6 1 31.239858 0 0 0 0 0
7 1 31.95 1.229756073373905 0 0 0 0
8 1 33.369858 1.229756073373905 0 0 0 0
9 1 34.08 0 0 0 0 0
10 1 35.499857999999996 0 0 0 0 0
11 1 36.21 1.229756073373905 0 0 0 0
12 1 37.629858 1.229756073373905 0 0 0 0
13 1 38.339999999999996 0 0 0 0 0
14 1 39.759857999999994 0 0 0 0 0
15 1 40.47 1.229756073373905 0 0 0 0
16 1 41.889858 1.229756073373905 0 0 0 0
17 1 42.599999999999994 0 0 0 0 0
18 1 44.01985799999999 0 0 0 0 0
19 1 44.73 1.229756073373905 0 0 0 0
20 1 46.149857999999995 1.229756073373905 0 0 0 0
21 1 46.86 0 0 0 0 0
22 1 48.279858 0 0 0 0 0
23 1 48.989999999999995 1.229756073373905 0 0 0 0
24 1 50.40985799999999 1.229756073373905 0 0 0 0
25 1 51.12 0 0 0 0 0
26 1 25.56 2.45951214674781 0 0 0 0
27 1 26.979858 2.45951214674781 0 0 0 0
28 1 27.689999999999998 3.689268220121715 0 0 0 0
29 1 29.109858 3.689268220121715 0 0 0 0
30 1 29.82 2.45951214674781 0 0 0 0
31 1 31.239858 2.45951214674781 0 0 0 0
32 1 31.95 3.689268220121715 0 0 0 0
33 1 33.369858 3.689268220121715 0 0 0 0
34 1 34.08 2.45951214674781 0 0 0 0
35 1 35.499857999999996 2.45951214674781 0 0 0 0
36 1 36.21 3.689268220121715 0 0 0 0
37 1 37.629858 3.689268220121715 0 0 0 0
38 1 38.339999999999996 2.45951214674781 0 0 0 0
39 1 39.759857999999994 2.45951214674781 0 0 0 0
40 1 40.47 3.689268220121715 0 0 0 0
41 1 41.889858 3.689268220121715 0 0 0 0
42 1 42.599999999999994 2.45951214674781 0 0 0 0
43 1 44.01985799999999 2.45951214674781 0 0 0 0
44 1 44.73 3.689268220121715 0 0 0 0
45 1 46.149857999999995 3.689268220121715 0 0 0 0
46 1 46.86 2.45951214674781 0 0 0 0
47 1 48.279858 2.45951214674781 0 0 0 0
48 1 48.989999999999995 3.689268220121715 0 0 0 0
49 1 50.40985799999999 3.689268220121715 0 0 0 0
50 1 51.12 2.45951214674781 0 0 0 0

Velocities

1 0 0 0
2 0 0 0
3 0 0 0
4 0 0 0
5 0 0 0
6 0 0 0
7 0 0 0
8 0 0 0
9 0 0 0
10 0 0 0
11 0 0 0
12 0 0 0
13 0 0 0
14 0 0 0
15 0 0 0
16 0 0 0
17 0 0 0
18 0 0 0
19 0 0 0
20 0 0 0
21 0 0 0
22 0 0 0
23 0 0 0
24 0 0 0
25 0 0 0
26 0 0 0
27 0 0 0
28 0 0 0
29 0 0 0
30 0 0 0
31 0 0 0
32 0 0 0
33 0 0 0
34 0 0 0
35 0 0 0
36 0 0 0
37 0 0 0
38 0 0 0
39 0 0 0
40 0 0 0
41 0 0 0
42 0 0 0
43 0 0 0
44 0 0 0
45 0 0 0
46 0 0 0
47 0 0 0
48 0 0 0
49 0 0 0
50 0 0 0
