ITEM: TIMESTEP
100
ITEM: NUMBER OF ATOMS
360
ITEM: BOX BOUNDS pp ff pp
0.0000000000000000e+00 1.2779999999999999e+01
0.0000000000000000e+00 7.3785364402434297e+01
0.0000000000000000e+00 1.0000000000000000e+01
ITEM: ATOMS id type fx fy fz
1 1 0.00129118 0.000144008 0
2 1 -0.00129118 0.000144008 0
3 1 0.000487797 0.000382919 0
4 1 -0.000487797 0.000382919 0
5 1 0.00129118 0.000144008 0
6 1 -0.00129118 0.000144008 0
7 1 0.000487799 0.00038292 0
8 1 -0.000487799 0.000382919 0
9 1 0.00129118 0.000144008 0
10 1 -0.00129118 0.000144008 0
11 1 0.000487798 0.000382919 0
12 1 -0.000487799 0.000382919 0
13 1 0.000107292 -0.000487456 0
14 1 -0.000107292 -0.000487456 0
15 1 3.35646e-06 -9.43237e-05 0
16 1 -3.35644e-06 -9.43237e-05 0
17 1 0.000107292 -0.000487456 0
18 1 -0.000107292 -0.000487455 0
19 1 3.3565e-06 -9.43238e-05 0
20 1 -3.35647e-06 -9.43239e-05 0
21 1 0.000107292 -0.000487455 0
22 1 -0.000107292 -0.000487455 0
23 1 3.35645e-06 -9.43238e-05 0
24 1 -3.35649e-06 -9.43238e-05 0
25 1 -9.32122e-05 0.00012357 0
26 1 9.32122e-05 0.00012357 0
27 1 1.18339e-05 0.000462203 0
28 1 -1.18339e-05 0.000462203 0
29 1 -9.32122e-05 0.00012357 0
30 1 9.32122e-05 0.00012357 0
31 1 1.18339e-05 0.000462203 0
32 1 -1.18339e-05 0.000462203 0
33 1 -9.32122e-05 0.00012357 0
34 1 9.32122e-05 0.00012357 0
35 1 1.18339e-05 0.000462203 0
36 1 -1.18339e-05 0.000462203 0
37 1 -2.56492e-05 5.61319e-05 0
38 1 2.56492e-05 5.61319e-05 0
41 1 -2.56492e-05 5.61319e-05 0
42 1 2.56492e-05 5.61319e-05 0
45 1 -2.56492e-05 5.61319e-05 0
46 1 2.56492e-05 5.61319e-05 0
49 1 -4.69613e-05 -0.000449838 0
50 1 4.69613e-05 -0.000449838 0
39 1 -0.000146343 5.03499e-05 0
40 1 0.000146343 5.03499e-05 0
53 1 -4.69613e-05 -0.000449838 0
54 1 4.69613e-05 -0.000449838 0
43 1 -0.000146343 5.03499e-05 0
44 1 0.000146343 5.03499e-05 0
47 1 -0.000146343 5.03499e-05 0
57 1 -4.69613e-05 -0.000449838 0
58 1 4.69613e-05 -0.000449838 0
48 1 0.000146343 5.03499e-05 0
61 1 0.000116647 -0.000482094 0
62 1 -0.000116647 -0.000482094 0
51 1 -0.000173041 -0.00018359 0
52 1 0.000173041 -0.00018359 0
65 1 0.000116647 -0.000482094 0
66 1 -0.000116647 -0.000482094 0
55 1 -0.000173041 -0.00018359 0
56 1 0.000173041 -0.00018359 0
59 1 -0.000173041 -0.00018359 0
69 1 0.000116647 -0.000482094 0
70 1 -0.000116647 -0.000482094 0
60 1 0.000173041 -0.00018359 0
63 1 -1.94281e-05 -0.000180306 0
64 1 1.94281e-05 -0.000180306 0
67 1 -1.94281e-05 -0.000180306 0
68 1 1.94281e-05 -0.000180306 0
71 1 -1.94281e-05 -0.000180306 0
72 1 1.94281e-05 -0.000180306 0
73 1 7.37248e-05 -0.000380156 0
74 1 -7.37248e-05 -0.000380156 0
75 1 2.66025e-07 0.000523592 0
76 1 -2.66025e-07 0.000523592 0
77 1 7.37248e-05 -0.000380156 0
78 1 -7.37248e-05 -0.000380156 0
79 1 2.66021e-07 0.000523592 0
80 1 -2.66023e-07 0.000523592 0
81 1 7.37248e-05 -0.000380156 0
82 1 -7.37248e-05 -0.000380156 0
83 1 2.66024e-07 0.000523592 0
84 1 -2.66021e-07 0.000523592 0
85 1 7.61518e-05 7.48398e-05 0
86 1 -7.61518e-05 7.48398e-05 0
87 1 7.11683e-05 0.000368872 0
88 1 -7.11683e-05 0.000368872 0
89 1 7.61518e-05 7.48398e-05 0
90 1 -7.61518e-05 7.48398e-05 0
91 1 7.11683e-05 0.000368872 0
92 1 -7.11683e-05 0.000368872 0
93 1 7.61518e-05 7.48398e-05 0
94 1 -7.61518e-05 7.48398e-05 0
95 1 7.11683e-05 0.000368872 0
96 1 -7.11683e-05 0.000368872 0
97 1 -6.53463e-05 -0.000141974 0
98 1 6.53463e-05 -0.000141974 0
99 1 -7.96694e-06 0.000226057 0
100 1 7.96695e-06 0.000226057 0
101 1 -6.53464e-05 -0.000141974 0
102 1 6.53464e-05 -0.000141974 0
103 1 -7.96694e-06 0.000226057 0
104 1 7.96695e-06 0.000226057 0
105 1 -6.53464e-05 -0.000141974 0
106 1 6.53464e-05 -0.000141974 0
107 1 -7.96695e-06 0.000226057 0
108 1 7.96694e-06 0.000226057 0
109 1 7.29197e-05 -0.000256763 0
110 1 -7.29197e-05 -0.000256763 0
113 1 7.29197e-05 -0.000256763 0
114 1 -7.29197e-05 -0.000256763 0
117 1 7.29197e-05 -0.000256763 0
118 1 -7.29197e-05 -0.000256763 0
121 1 -4.88959e-05 -0.000124781 0
122 1 4.88959e-05 -0.000124781 0
111 1 -6.33919e-05 3.32297e-05 0
112 1 6.33919e-05 3.32297e-05 0
125 1 -4.88959e-05 -0.000124781 0
126 1 4.88959e-05 -0.000124781 0
115 1 -6.33919e-05 3.32297e-05 0
116 1 6.33919e-05 3.32297e-05 0
119 1 -6.33919e-05 3.32297e-05 0
129 1 -4.88959e-05 -0.000124781 0
130 1 4.88959e-05 -0.000124781 0
120 1 6.33919e-05 3.32297e-05 0
133 1 -0.000112871 -0.000126544 0
134 1 0.000112871 -0.000126544 0
123 1 7.06911e-05 0.000199652 0
124 1 -7.06911e-05 0.000199652 0
137 1 -0.000112871 -0.000126544 0
138 1 0.000112871 -0.000126544 0
127 1 7.06911e-05 0.000199652 0
128 1 -7.06911e-05 0.000199652 0
131 1 7.06911e-05 0.000199652 0
141 1 -0.000112871 -0.000126544 0
142 1 0.000112871 -0.000126544 0
132 1 -7.06911e-05 0.000199652 0
135 1 0.000232088 -0.000191836 0
136 1 -0.000232088 -0.000191836 0
139 1 0.000232088 -0.000191836 0
140 1 -0.000232088 -0.000191836 0
143 1 0.000232088 -0.000191836 0
144 1 -0.000232088 -0.000191836 0
145 1 -0.000159158 -0.000334419 0
146 1 0.000159158 -0.000334419 0
147 1 8.57014e-05 -0.000377053 0
148 1 -8.57014e-05 -0.000377053 0
149 1 -0.000159158 -0.000334419 0
150 1 0.000159158 -0.000334419 0
151 1 8.57014e-05 -0.000377053 0
152 1 -8.57014e-05 -0.000377053 0
153 1 -0.000159158 -0.000334419 0
154 1 0.000159158 -0.000334419 0
155 1 8.57014e-05 -0.000377053 0
156 1 -8.57014e-05 -0.000377053 0
157 1 -0.000236835 0.000415394 0
158 1 0.000236835 0.000415394 0
159 1 0.000331698 -0.000178925 0
160 1 -0.000331698 -0.000178925 0
161 1 -0.000236835 0.000415394 0
162 1 0.000236835 0.000415394 0
163 1 0.000331698 -0.000178925 0
164 1 -0.000331698 -0.000178925 0
165 1 -0.000236835 0.000415394 0
166 1 0.000236835 0.000415394 0
167 1 0.000331698 -0.000178925 0
168 1 -0.000331698 -0.000178925 0
169 1 -0.000280339 0.000335214 0
170 1 0.000280339 0.000335214 0
171 1 0.000145113 -7.36746e-06 0
172 1 -0.000145113 -7.36747e-06 0
173 1 -0.000280339 0.000335214 0
174 1 0.000280339 0.000335214 0
175 1 0.000145113 -7.36746e-06 0
176 1 -0.000145113 -7.36746e-06 0
177 1 -0.000280339 0.000335214 0
178 1 0.000280339 0.000335214 0
179 1 0.000145113 -7.36746e-06 0
180 1 -0.000145113 -7.36746e-06 0
181 1 0.000145113 7.36746e-06 0
182 1 -0.000145113 7.36746e-06 0
185 1 0.000145113 7.36745e-06 0
186 1 -0.000145113 7.36746e-06 0
189 1 0.000145113 7.36747e-06 0
190 1 -0.000145113 7.36746e-06 0
193 1 0.000331698 0.000178925 0
194 1 -0.000331698 0.000178925 0
183 1 -0.000280339 -0.000335214 0
184 1 0.000280339 -0.000335214 0
197 1 0.000331698 0.000178925 0
198 1 -0.000331698 0.000178925 0
187 1 -0.000280339 -0.000335214 0
188 1 0.000280339 -0.000335214 0
191 1 -0.000280339 -0.000335214 0
201 1 0.000331698 0.000178925 0
202 1 -0.000331698 0.000178925 0
192 1 0.000280339 -0.000335214 0
205 1 8.57014e-05 0.000377053 0
206 1 -8.57014e-05 0.000377053 0
195 1 -0.000236835 -0.000415394 0
196 1 0.000236835 -0.000415394 0
209 1 8.57014e-05 0.000377053 0
210 1 -8.57014e-05 0.000377053 0
199 1 -0.000236835 -0.000415394 0
200 1 0.000236835 -0.000415394 0
203 1 -0.000236835 -0.000415394 0
213 1 8.57014e-05 0.000377053 0
214 1 -8.57014e-05 0.000377053 0
204 1 0.000236835 -0.000415394 0
207 1 -0.000159158 0.000334419 0
208 1 0.000159158 0.000334419 0
211 1 -0.000159158 0.000334419 0
212 1 0.000159158 0.000334419 0
215 1 -0.000159158 0.000334419 0
216 1 0.000159158 0.000334419 0
217 1 0.000232088 0.000191836 0
218 1 -0.000232088 0.000191836 0
219 1 -0.000112871 0.000126544 0
220 1 0.000112871 0.000126544 0
221 1 0.000232088 0.000191836 0
222 1 -0.000232088 0.000191836 0
223 1 -0.000112871 0.000126544 0
224 1 0.000112871 0.000126544 0
225 1 0.000232088 0.000191836 0
226 1 -0.000232088 0.000191836 0
227 1 -0.000112871 0.000126544 0
228 1 0.000112871 0.000126544 0
229 1 7.06911e-05 -0.000199652 0
230 1 -7.06911e-05 -0.000199652 0
231 1 -4.88959e-05 0.000124781 0
232 1 4.88959e-05 0.000124781 0
233 1 7.06911e-05 -0.000199652 0
234 1 -7.06911e-05 -0.000199652 0
235 1 -4.88959e-05 0.000124781 0
236 1 4.88959e-05 0.000124781 0
237 1 7.06911e-05 -0.000199652 0
238 1 -7.06911e-05 -0.000199652 0
239 1 -4.88959e-05 0.000124781 0
240 1 4.88959e-05 0.000124781 0
241 1 -6.33919e-05 -3.32297e-05 0
242 1 6.33919e-05 -3.32297e-05 0
243 1 7.29197e-05 0.000256763 0
244 1 -7.29197e-05 0.000256763 0
245 1 -6.33919e-05 -3.32297e-05 0
246 1 6.33919e-05 -3.32297e-05 0
247 1 7.29197e-05 0.000256763 0
248 1 -7.29197e-05 0.000256763 0
249 1 -6.33919e-05 -3.32297e-05 0
250 1 6.33919e-05 -3.32297e-05 0
251 1 7.29197e-05 0.000256763 0
252 1 -7.29197e-05 0.000256763 0
253 1 -7.96694e-06 -0.000226057 0
254 1 7.96694e-06 -0.000226057 0
257 1 -7.96694e-06 -0.000226057 0
258 1 7.96695e-06 -0.000226057 0
261 1 -7.96694e-06 -0.000226057 0
262 1 7.96695e-06 -0.000226057 0
265 1 7.11683e-05 -0.000368872 0
266 1 -7.11683e-05 -0.000368872 0
255 1 -6.53464e-05 0.000141974 0
256 1 6.53464e-05 0.000141974 0
269 1 7.11683e-05 -0.000368872 0
270 1 -7.11683e-05 -0.000368872 0
259 1 -6.53463e-05 0.000141974 0
260 1 6.53464e-05 0.000141974 0
263 1 -6.53464e-05 0.000141974 0
273 1 7.11683e-05 -0.000368872 0
274 1 -7.11683e-05 -0.000368872 0
264 1 6.53464e-05 0.000141974 0
277 1 2.66026e-07 -0.000523592 0
278 1 -2.66023e-07 -0.000523592 0
267 1 7.61518e-05 -7.48398e-05 0
268 1 -7.61518e-05 -7.48398e-05 0
281 1 2.66025e-07 -0.000523592 0
282 1 -2.66022e-07 -0.000523592 0
271 1 7.61518e-05 -7.48398e-05 0
272 1 -7.61518e-05 -7.48397e-05 0
275 1 7.61518e-05 -7.48398e-05 0
285 1 2.66021e-07 -0.000523592 0
286 1 -2.66025e-07 -0.000523592 0
276 1 -7.61518e-05 -7.48398e-05 0
279 1 7.37248e-05 0.000380156 0
280 1 -7.37248e-05 0.000380156 0
283 1 7.37248e-05 0.000380156 0
284 1 -7.37248e-05 0.000380156 0
287 1 7.37248e-05 0.000380156 0
288 1 -7.37248e-05 0.000380156 0
289 1 -1.94281e-05 0.000180306 0
290 1 1.94281e-05 0.000180306 0
291 1 0.000116647 0.000482094 0
292 1 -0.000116647 0.000482094 0
293 1 -1.94281e-05 0.000180306 0
294 1 1.94281e-05 0.000180306 0
295 1 0.000116647 0.000482094 0
296 1 -0.000116647 0.000482094 0
297 1 -1.94281e-05 0.000180306 0
298 1 1.94281e-05 0.000180306 0
299 1 0.000116647 0.000482094 0
300 1 -0.000116647 0.000482094 0
301 1 -0.000173041 0.00018359 0
302 1 0.000173041 0.00018359 0
303 1 -4.69613e-05 0.000449838 0
304 1 4.69613e-05 0.000449838 0
305 1 -0.000173041 0.00018359 0
306 1 0.000173041 0.00018359 0
307 1 -4.69613e-05 0.000449838 0
308 1 4.69613e-05 0.000449838 0
309 1 -0.000173041 0.00018359 0
310 1 0.000173041 0.00018359 0
311 1 -4.69613e-05 0.000449838 0
312 1 4.69613e-05 0.000449838 0
313 1 -0.000146343 -5.03499e-05 0
314 1 0.000146343 -5.03499e-05 0
315 1 -2.56492e-05 -5.61319e-05 0
316 1 2.56492e-05 -5.61319e-05 0
317 1 -0.000146343 -5.03499e-05 0
318 1 0.000146343 -5.03499e-05 0
319 1 -2.56492e-05 -5.61319e-05 0
320 1 2.56492e-05 -5.61319e-05 0
321 1 -0.000146343 -5.03499e-05 0
322 1 0.000146343 -5.03499e-05 0
323 1 -2.56492e-05 -5.61319e-05 0
324 1 2.56492e-05 -5.61319e-05 0
325 1 1.18339e-05 -0.000462203 0
326 1 -1.18339e-05 -0.000462203 0
329 1 1.18339e-05 -0.000462203 0
330 1 -1.18339e-05 -0.000462203 0
333 1 1.18339e-05 -0.000462203 0
334 1 -1.18339e-05 -0.000462203 0
337 1 3.35655e-06 9.43237e-05 0
338 1 -3.35637e-06 9.43239e-05 0
327 1 -9.32121e-05 -0.00012357 0
328 1 9.32121e-05 -0.00012357 0
341 1 3.35651e-06 9.43241e-05 0
342 1 -3.35659e-06 9.4324e-05 0
331 1 -9.32121e-05 -0.00012357 0
332 1 9.32122e-05 -0.00012357 0
335 1 -9.32123e-05 -0.00012357 0
345 1 3.35634e-06 9.43236e-05 0
346 1 -3.35644e-06 9.43235e-05 0
336 1 9.32122e-05 -0.00012357 0
349 1 0.000487799 -0.00038292 0
350 1 -0.000487797 -0.000382918 0
339 1 0.000107292 0.000487455 0
340 1 -0.000107292 0.000487455 0
353 1 0.000487803 -0.000382919 0
354 1 -0.000487803 -0.000382921 0
343 1 0.000107292 0.000487455 0
344 1 -0.000107291 0.000487455 0
347 1 0.000107292 0.000487456 0
357 1 0.000487794 -0.000382918 0
358 1 -0.000487795 -0.000382919 0
348 1 -0.000107292 0.000487456 0
351 1 0.00129117 -0.000144009 0
352 1 -0.00129118 -0.000144007 0
355 1 0.00129118 -0.000144007 0
356 1 -0.00129117 -0.000144009 0
359 1 0.00129118 -0.000144008 0
360 1 -0.00129118 -0.000144007 0
