phonopy:
  version: "2.33.2"
  frequency_unit_conversion_factor: 15.633302
  symmetry_tolerance: 1.00000e-05
  configuration:
    displacement_distance: "0.01"
    create_displacements: ".true."
    dim: "1 5 1"

physical_unit:
  atomic_mass: "AMU"
  length: "angstrom"

space_group:
  type: "Pm"
  number: 6
  Hall_symbol: "P -2y"

supercell_matrix:
- [   1,   0,   0 ]
- [   0,   5,   0 ]
- [   0,   0,   1 ]

primitive_cell:
  lattice:
  - [    25.559999999999999,     0.000000000000000,     0.000000000000000 ] # a
  - [     0.000000000000000,    68.159999999999997,     0.000000000000000 ] # b
  - [     0.000000000000000,     0.000000000000000,     2.840000000000000 ] # c
  points:
  - symbol: C # 1
    coordinates: [  0.333333333333333,  0.000000000000000,  0.000000000000000 ]
    mass: 12.010700
  - symbol: C # 2
    coordinates: [  0.388883333333333,  0.000000000000000,  0.000000000000000 ]
    mass: 12.010700
  - symbol: C # 3
    coordinates: [  0.416666666666667,  0.018042195912176,  0.000000000000000 ]
    mass: 12.010700
  - symbol: C # 4
    coordinates: [  0.472216666666667,  0.018042195912176,  0.000000000000000 ]
    mass: 12.010700
  - symbol: C # 5
    coordinates: [  0.500000000000000,  0.000000000000000,  0.000000000000000 ]
    mass: 12.010700
  - symbol: C # 6
    coordinates: [  0.555550000000000,  0.000000000000000,  0.000000000000000 ]
    mass: 12.010700
  - symbol: C # 7
    coordinates: [  0.583333333333333,  0.018042195912176,  0.000000000000000 ]
    mass: 12.010700
  - symbol: C # 8
    coordinates: [  0.638883333333333,  0.018042195912176,  0.000000000000000 ]
    mass: 12.010700
  - symbol: C # 9
    coordinates: [  0.666666666666667,  0.000000000000000,  0.000000000000000 ]
    mass: 12.010700
  - symbol: C # 10
    coordinates: [  0.333333333333333,  0.036084391824352,  0.000000000000000 ]
    mass: 12.010700
  - symbol: C # 11
    coordinates: [  0.388883333333333,  0.036084391824352,  0.000000000000000 ]
    mass: 12.010700
  - symbol: C # 12
    coordinates: [  0.416666666666667,  0.054126587736528,  0.000000000000000 ]
    mass: 12.010700
  - symbol: C # 13
    coordinates: [  0.472216666666667,  0.054126587736528,  0.000000000000000 ]
    mass: 12.010700
  - symbol: C # 14
    coordinates: [  0.500000000000000,  0.036084391824352,  0.000000000000000 ]
    mass: 12.010700
  - symbol: C # 15
    coordinates: [  0.555550000000000,  0.036084391824352,  0.000000000000000 ]
    mass: 12.010700
  - symbol: C # 16
    coordinates: [  0.583333333333333,  0.054126587736528,  0.000000000000000 ]
    mass: 12.010700
  - symbol: C # 17
    coordinates: [  0.638883333333333,  0.054126587736528,  0.000000000000000 ]
    mass: 12.010700
  - symbol: C # 18
    coordinates: [  0.666666666666667,  0.036084391824352,  0.000000000000000 ]
    mass: 12.010700
  - symbol: C # 19
    coordinates: [  0.333333333333333,  0.072168783648703,  0.000000000000000 ]
    mass: 12.010700
  - symbol: C # 20
    coordinates: [  0.388883333333333,  0.072168783648703,  0.000000000000000 ]
    mass: 12.010700
  - symbol: C # 21
    coordinates: [  0.416666666666667,  0.090210979560879,  0.000000000000000 ]
    mass: 12.010700
  - symbol: C # 22
    coordinates: [  0.472216666666667,  0.090210979560879,  0.000000000000000 ]
    mass: 12.010700
  - symbol: C # 23
    coordinates: [  0.500000000000000,  0.072168783648703,  0.000000000000000 ]
    mass: 12.010700
  - symbol: C # 24
    coordinates: [  0.555550000000000,  0.072168783648703,  0.000000000000000 ]
    mass: 12.010700
  - symbol: C # 25
    coordinates: [  0.583333333333333,  0.090210979560879,  0.000000000000000 ]
    mass: 12.010700
  - symbol: C # 26
    coordinates: [  0.638883333333333,  0.090210979560879,  0.000000000000000 ]
    mass: 12.010700
  - symbol: C # 27
    coordinates: [  0.666666666666667,  0.072168783648703,  0.000000000000000 ]
    mass: 12.010700
  - symbol: C # 28
    coordinates: [  0.333333333333333,  0.108253175473055,  0.000000000000000 ]
    mass: 12.010700
  - symbol: C # 29
    coordinates: [  0.388883333333333,  0.108253175473055,  0.000000000000000 ]
    mass: 12.010700
  - symbol: C # 30
    coordinates: [  0.416666666666667,  0.126295371385231,  0.000000000000000 ]
    mass: 12.010700
  - symbol: C # 31
    coordinates: [  0.472216666666667,  0.126295371385231,  0.000000000000000 ]
    mass: 12.010700
  - symbol: C # 32
    coordinates: [  0.500000000000000,  0.108253175473055,  0.000000000000000 ]
    mass: 12.010700
  - symbol: C # 33
    coordinates: [  0.555550000000000,  0.108253175473055,  0.000000000000000 ]
    mass: 12.010700
  - symbol: C # 34
    coordinates: [  0.583333333333333,  0.126295371385231,  0.000000000000000 ]
    mass: 12.010700
  - symbol: C # 35
    coordinates: [  0.638883333333333,  0.126295371385231,  0.000000000000000 ]
    mass: 12.010700
  - symbol: C # 36
    coordinates: [  0.666666666666667,  0.108253175473055,  0.000000000000000 ]
    mass: 12.010700
  - symbol: C # 37
    coordinates: [  0.333333333333333,  0.144337567297407,  0.000000000000000 ]
    mass: 12.010700
  - symbol: C # 38
    coordinates: [  0.388883333333333,  0.144337567297407,  0.000000000000000 ]
    mass: 12.010700
  - symbol: C # 39
    coordinates: [  0.416666666666667,  0.162379763209583,  0.000000000000000 ]
    mass: 12.010700
  - symbol: C # 40
    coordinates: [  0.472216666666667,  0.162379763209583,  0.000000000000000 ]
    mass: 12.010700
  - symbol: C # 41
    coordinates: [  0.500000000000000,  0.144337567297407,  0.000000000000000 ]
    mass: 12.010700
  - symbol: C # 42
    coordinates: [  0.555550000000000,  0.144337567297407,  0.000000000000000 ]
    mass: 12.010700
  - symbol: C # 43
    coordinates: [  0.583333333333333,  0.162379763209583,  0.000000000000000 ]
    mass: 12.010700
  - symbol: C # 44
    coordinates: [  0.638883333333333,  0.162379763209583,  0.000000000000000 ]
    mass: 12.010700
  - symbol: C # 45
    coordinates: [  0.666666666666667,  0.144337567297407,  0.000000000000000 ]
    mass: 12.010700
  - symbol: C # 46
    coordinates: [  0.333333333333333,  0.180421959121758,  0.000000000000000 ]
    mass: 12.010700
  - symbol: C # 47
    coordinates: [  0.388883333333333,  0.180421959121758,  0.000000000000000 ]
    mass: 12.010700
  - symbol: C # 48
    coordinates: [  0.416666666666667,  0.198464155033934,  0.000000000000000 ]
    mass: 12.010700
  - symbol: C # 49
    coordinates: [  0.472216666666667,  0.198464155033934,  0.000000000000000 ]
    mass: 12.010700
  - symbol: C # 50
    coordinates: [  0.500000000000000,  0.180421959121758,  0.000000000000000 ]
    mass: 12.010700
  - symbol: C # 51
    coordinates: [  0.555550000000000,  0.180421959121758,  0.000000000000000 ]
    mass: 12.010700
  - symbol: C # 52
    coordinates: [  0.583333333333333,  0.198464155033934,  0.000000000000000 ]
    mass: 12.010700
  - symbol: C # 53
    coordinates: [  0.638883333333333,  0.198464155033934,  0.000000000000000 ]
    mass: 12.010700
  - symbol: C # 54
    coordinates: [  0.666666666666667,  0.180421959121758,  0.000000000000000 ]
    mass: 12.010700
  - symbol: C # 55
    coordinates: [  0.333333333333333,  0.216506350946110,  0.000000000000000 ]
    mass: 12.010700
  - symbol: C # 56
    coordinates: [  0.388883333333333,  0.216506350946110,  0.000000000000000 ]
    mass: 12.010700
  - symbol: C # 57
    coordinates: [  0.416666666666667,  0.234548546858286,  0.000000000000000 ]
    mass: 12.010700
  - symbol: C # 58
    coordinates: [  0.472216666666667,  0.234548546858286,  0.000000000000000 ]
    mass: 12.010700
  - symbol: C # 59
    coordinates: [  0.500000000000000,  0.216506350946110,  0.000000000000000 ]
    mass: 12.010700
  - symbol: C # 60
    coordinates: [  0.555550000000000,  0.216506350946110,  0.000000000000000 ]
    mass: 12.010700
  - symbol: C # 61
    coordinates: [  0.583333333333333,  0.234548546858286,  0.000000000000000 ]
    mass: 12.010700
  - symbol: C # 62
    coordinates: [  0.638883333333333,  0.234548546858286,  0.000000000000000 ]
    mass: 12.010700
  - symbol: C # 63
    coordinates: [  0.666666666666667,  0.216506350946110,  0.000000000000000 ]
    mass: 12.010700
  - symbol: C # 64
    coordinates: [  0.333333333333333,  0.252590742770462,  0.000000000000000 ]
    mass: 12.010700
  - symbol: C # 65
    coordinates: [  0.388883333333333,  0.252590742770462,  0.000000000000000 ]
    mass: 12.010700
  - symbol: C # 66
    coordinates: [  0.416666666666667,  0.270632938682638,  0.000000000000000 ]
    mass: 12.010700
  - symbol: C # 67
    coordinates: [  0.472216666666667,  0.270632938682638,  0.000000000000000 ]
    mass: 12.010700
  - symbol: C # 68
    coordinates: [  0.500000000000000,  0.252590742770462,  0.000000000000000 ]
    mass: 12.010700
  - symbol: C # 69
    coordinates: [  0.555550000000000,  0.252590742770462,  0.000000000000000 ]
    mass: 12.010700
  - symbol: C # 70
    coordinates: [  0.583333333333333,  0.270632938682638,  0.000000000000000 ]
    mass: 12.010700
  - symbol: C # 71
    coordinates: [  0.638883333333333,  0.270632938682638,  0.000000000000000 ]
    mass: 12.010700
  - symbol: C # 72
    coordinates: [  0.666666666666667,  0.252590742770462,  0.000000000000000 ]
    mass: 12.010700
  - symbol: C # 73
    coordinates: [  0.333333333333333,  0.288675134594813,  0.000000000000000 ]
    mass: 12.010700
  - symbol: C # 74
    coordinates: [  0.388883333333333,  0.288675134594813,  0.000000000000000 ]
    mass: 12.010700
  - symbol: C # 75
    coordinates: [  0.416666666666667,  0.306717330506989,  0.000000000000000 ]
    mass: 12.010700
  - symbol: C # 76
    coordinates: [  0.472216666666667,  0.306717330506989,  0.000000000000000 ]
    mass: 12.010700
  - symbol: C # 77
    coordinates: [  0.500000000000000,  0.288675134594813,  0.000000000000000 ]
    mass: 12.010700
  - symbol: C # 78
    coordinates: [  0.555550000000000,  0.288675134594813,  0.000000000000000 ]
    mass: 12.010700
  - symbol: C # 79
    coordinates: [  0.583333333333333,  0.306717330506989,  0.000000000000000 ]
    mass: 12.010700
  - symbol: C # 80
    coordinates: [  0.638883333333333,  0.306717330506989,  0.000000000000000 ]
    mass: 12.010700
  - symbol: C # 81
    coordinates: [  0.666666666666667,  0.288675134594813,  0.000000000000000 ]
    mass: 12.010700
  - symbol: C # 82
    coordinates: [  0.333333333333333,  0.324759526419165,  0.000000000000000 ]
    mass: 12.010700
  - symbol: C # 83
    coordinates: [  0.388883333333333,  0.324759526419165,  0.000000000000000 ]
    mass: 12.010700
  - symbol: C # 84
    coordinates: [  0.416666666666667,  0.342801722331341,  0.000000000000000 ]
    mass: 12.010700
  - symbol: C # 85
    coordinates: [  0.472216666666667,  0.342801722331341,  0.000000000000000 ]
    mass: 12.010700
  - symbol: C # 86
    coordinates: [  0.500000000000000,  0.324759526419165,  0.000000000000000 ]
    mass: 12.010700
  - symbol: C # 87
    coordinates: [  0.555550000000000,  0.324759526419165,  0.000000000000000 ]
    mass: 12.010700
  - symbol: C # 88
    coordinates: [  0.583333333333333,  0.342801722331341,  0.000000000000000 ]
    mass: 12.010700
  - symbol: C # 89
    coordinates: [  0.638883333333333,  0.342801722331341,  0.000000000000000 ]
    mass: 12.010700
  - symbol: C # 90
    coordinates: [  0.666666666666667,  0.324759526419165,  0.000000000000000 ]
    mass: 12.010700
  - symbol: C # 91
    coordinates: [  0.333333333333333,  0.360843918243517,  0.000000000000000 ]
    mass: 12.010700
  - symbol: C # 92
    coordinates: [  0.388883333333333,  0.360843918243517,  0.000000000000000 ]
    mass: 12.010700
  - symbol: C # 93
    coordinates: [  0.416666666666667,  0.378886114155693,  0.000000000000000 ]
    mass: 12.010700
  - symbol: C # 94
    coordinates: [  0.472216666666667,  0.378886114155693,  0.000000000000000 ]
    mass: 12.010700
  - symbol: C # 95
    coordinates: [  0.500000000000000,  0.360843918243517,  0.000000000000000 ]
    mass: 12.010700
  - symbol: C # 96
    coordinates: [  0.555550000000000,  0.360843918243517,  0.000000000000000 ]
    mass: 12.010700
  - symbol: C # 97
    coordinates: [  0.583333333333333,  0.378886114155693,  0.000000000000000 ]
    mass: 12.010700
  - symbol: C # 98
    coordinates: [  0.638883333333333,  0.378886114155693,  0.000000000000000 ]
    mass: 12.010700
  - symbol: C # 99
    coordinates: [  0.666666666666667,  0.360843918243517,  0.000000000000000 ]
    mass: 12.010700
  - symbol: C # 100
    coordinates: [  0.333333333333333,  0.396928310067868,  0.000000000000000 ]
    mass: 12.010700
  - symbol: C # 101
    coordinates: [  0.388883333333333,  0.396928310067868,  0.000000000000000 ]
    mass: 12.010700
  - symbol: C # 102
    coordinates: [  0.416666666666667,  0.414970505980044,  0.000000000000000 ]
    mass: 12.010700
  - symbol: C # 103
    coordinates: [  0.472216666666667,  0.414970505980044,  0.000000000000000 ]
    mass: 12.010700
  - symbol: C # 104
    coordinates: [  0.500000000000000,  0.396928310067868,  0.000000000000000 ]
    mass: 12.010700
  - symbol: C # 105
    coordinates: [  0.555550000000000,  0.396928310067868,  0.000000000000000 ]
    mass: 12.010700
  - symbol: C # 106
    coordinates: [  0.583333333333333,  0.414970505980044,  0.000000000000000 ]
    mass: 12.010700
  - symbol: C # 107
    coordinates: [  0.638883333333333,  0.414970505980044,  0.000000000000000 ]
    mass: 12.010700
  - symbol: C # 108
    coordinates: [  0.666666666666667,  0.396928310067868,  0.000000000000000 ]
    mass: 12.010700
  - symbol: C # 109
    coordinates: [  0.333333333333333,  0.433012701892220,  0.000000000000000 ]
    mass: 12.010700
  - symbol: C # 110
    coordinates: [  0.388883333333333,  0.433012701892220,  0.000000000000000 ]
    mass: 12.010700
  - symbol: C # 111
    coordinates: [  0.416666666666667,  0.451054897804396,  0.000000000000000 ]
    mass: 12.010700
  - symbol: C # 112
    coordinates: [  0.472216666666667,  0.451054897804396,  0.000000000000000 ]
    mass: 12.010700
  - symbol: C # 113
    coordinates: [  0.500000000000000,  0.433012701892220,  0.000000000000000 ]
    mass: 12.010700
  - symbol: C # 114
    coordinates: [  0.555550000000000,  0.433012701892220,  0.000000000000000 ]
    mass: 12.010700
  - symbol: C # 115
    coordinates: [  0.583333333333333,  0.451054897804396,  0.000000000000000 ]
    mass: 12.010700
  - symbol: C # 116
    coordinates: [  0.638883333333333,  0.451054897804396,  0.000000000000000 ]
    mass: 12.010700
  - symbol: C # 117
    coordinates: [  0.666666666666667,  0.433012701892220,  0.000000000000000 ]
    mass: 12.010700
  - symbol: C # 118
    coordinates: [  0.333333333333333,  0.469097093716572,  0.000000000000000 ]
    mass: 12.010700
  - symbol: C # 119
    coordinates: [  0.388883333333333,  0.469097093716572,  0.000000000000000 ]
    mass: 12.010700
  - symbol: C # 120
    coordinates: [  0.416666666666667,  0.487139289628748,  0.000000000000000 ]
    mass: 12.010700
  - symbol: C # 121
    coordinates: [  0.472216666666667,  0.487139289628748,  0.000000000000000 ]
    mass: 12.010700
  - symbol: C # 122
    coordinates: [  0.500000000000000,  0.469097093716572,  0.000000000000000 ]
    mass: 12.010700
  - symbol: C # 123
    coordinates: [  0.555550000000000,  0.469097093716572,  0.000000000000000 ]
    mass: 12.010700
  - symbol: C # 124
    coordinates: [  0.583333333333333,  0.487139289628748,  0.000000000000000 ]
    mass: 12.010700
  - symbol: C # 125
    coordinates: [  0.638883333333333,  0.487139289628748,  0.000000000000000 ]
    mass: 12.010700
  - symbol: C # 126
    coordinates: [  0.666666666666667,  0.469097093716572,  0.000000000000000 ]
    mass: 12.010700
  - symbol: C # 127
    coordinates: [  0.333333333333333,  0.505181485540923,  0.000000000000000 ]
    mass: 12.010700
  - symbol: C # 128
    coordinates: [  0.388883333333333,  0.505181485540923,  0.000000000000000 ]
    mass: 12.010700
  - symbol: C # 129
    coordinates: [  0.416666666666667,  0.523223681453099,  0.000000000000000 ]
    mass: 12.010700
  - symbol: C # 130
    coordinates: [  0.472216666666667,  0.523223681453099,  0.000000000000000 ]
    mass: 12.010700
  - symbol: C # 131
    coordinates: [  0.500000000000000,  0.505181485540923,  0.000000000000000 ]
    mass: 12.010700
  - symbol: C # 132
    coordinates: [  0.555550000000000,  0.505181485540923,  0.000000000000000 ]
    mass: 12.010700
  - symbol: C # 133
    coordinates: [  0.583333333333333,  0.523223681453099,  0.000000000000000 ]
    mass: 12.010700
  - symbol: C # 134
    coordinates: [  0.638883333333333,  0.523223681453099,  0.000000000000000 ]
    mass: 12.010700
  - symbol: C # 135
    coordinates: [  0.666666666666667,  0.505181485540923,  0.000000000000000 ]
    mass: 12.010700
  - symbol: C # 136
    coordinates: [  0.333333333333333,  0.541265877365275,  0.000000000000000 ]
    mass: 12.010700
  - symbol: C # 137
    coordinates: [  0.388883333333333,  0.541265877365275,  0.000000000000000 ]
    mass: 12.010700
  - symbol: C # 138
    coordinates: [  0.416666666666667,  0.559308073277451,  0.000000000000000 ]
    mass: 12.010700
  - symbol: C # 139
    coordinates: [  0.472216666666667,  0.559308073277451,  0.000000000000000 ]
    mass: 12.010700
  - symbol: C # 140
    coordinates: [  0.500000000000000,  0.541265877365275,  0.000000000000000 ]
    mass: 12.010700
  - symbol: C # 141
    coordinates: [  0.555550000000000,  0.541265877365275,  0.000000000000000 ]
    mass: 12.010700
  - symbol: C # 142
    coordinates: [  0.583333333333333,  0.559308073277451,  0.000000000000000 ]
    mass: 12.010700
  - symbol: C # 143
    coordinates: [  0.638883333333333,  0.559308073277451,  0.000000000000000 ]
    mass: 12.010700
  - symbol: C # 144
    coordinates: [  0.666666666666667,  0.541265877365275,  0.000000000000000 ]
    mass: 12.010700
  - symbol: C # 145
    coordinates: [  0.333333333333333,  0.577350269189627,  0.000000000000000 ]
    mass: 12.010700
  - symbol: C # 146
    coordinates: [  0.388883333333333,  0.577350269189627,  0.000000000000000 ]
    mass: 12.010700
  - symbol: C # 147
    coordinates: [  0.416666666666667,  0.595392465101803,  0.000000000000000 ]
    mass: 12.010700
  - symbol: C # 148
    coordinates: [  0.472216666666667,  0.595392465101803,  0.000000000000000 ]
    mass: 12.010700
  - symbol: C # 149
    coordinates: [  0.500000000000000,  0.577350269189627,  0.000000000000000 ]
    mass: 12.010700
  - symbol: C # 150
    coordinates: [  0.555550000000000,  0.577350269189627,  0.000000000000000 ]
    mass: 12.010700
  - symbol: C # 151
    coordinates: [  0.583333333333333,  0.595392465101803,  0.000000000000000 ]
    mass: 12.010700
  - symbol: C # 152
    coordinates: [  0.638883333333333,  0.595392465101803,  0.000000000000000 ]
    mass: 12.010700
  - symbol: C # 153
    coordinates: [  0.666666666666667,  0.577350269189627,  0.000000000000000 ]
    mass: 12.010700
  - symbol: C # 154
    coordinates: [  0.333333333333333,  0.613434661013978,  0.000000000000000 ]
    mass: 12.010700
  - symbol: C # 155
    coordinates: [  0.388883333333333,  0.613434661013978,  0.000000000000000 ]
    mass: 12.010700
  - symbol: C # 156
    coordinates: [  0.416666666666667,  0.631476856926154,  0.000000000000000 ]
    mass: 12.010700
  - symbol: C # 157
    coordinates: [  0.472216666666667,  0.631476856926154,  0.000000000000000 ]
    mass: 12.010700
  - symbol: C # 158
    coordinates: [  0.500000000000000,  0.613434661013978,  0.000000000000000 ]
    mass: 12.010700
  - symbol: C # 159
    coordinates: [  0.555550000000000,  0.613434661013978,  0.000000000000000 ]
    mass: 12.010700
  - symbol: C # 160
    coordinates: [  0.583333333333333,  0.631476856926154,  0.000000000000000 ]
    mass: 12.010700
  - symbol: C # 161
    coordinates: [  0.638883333333333,  0.631476856926154,  0.000000000000000 ]
    mass: 12.010700
  - symbol: C # 162
    coordinates: [  0.666666666666667,  0.613434661013978,  0.000000000000000 ]
    mass: 12.010700
  - symbol: C # 163
    coordinates: [  0.333333333333333,  0.649519052838330,  0.000000000000000 ]
    mass: 12.010700
  - symbol: C # 164
    coordinates: [  0.388883333333333,  0.649519052838330,  0.000000000000000 ]
    mass: 12.010700
  - symbol: C # 165
    coordinates: [  0.416666666666667,  0.667561248750506,  0.000000000000000 ]
    mass: 12.010700
  - symbol: C # 166
    coordinates: [  0.472216666666667,  0.667561248750506,  0.000000000000000 ]
    mass: 12.010700
  - symbol: C # 167
    coordinates: [  0.500000000000000,  0.649519052838330,  0.000000000000000 ]
    mass: 12.010700
  - symbol: C # 168
    coordinates: [  0.555550000000000,  0.649519052838330,  0.000000000000000 ]
    mass: 12.010700
  - symbol: C # 169
    coordinates: [  0.583333333333333,  0.667561248750506,  0.000000000000000 ]
    mass: 12.010700
  - symbol: C # 170
    coordinates: [  0.638883333333333,  0.667561248750506,  0.000000000000000 ]
    mass: 12.010700
  - symbol: C # 171
    coordinates: [  0.666666666666667,  0.649519052838330,  0.000000000000000 ]
    mass: 12.010700
  - symbol: C # 172
    coordinates: [  0.333333333333333,  0.685603444662682,  0.000000000000000 ]
    mass: 12.010700
  - symbol: C # 173
    coordinates: [  0.388883333333333,  0.685603444662682,  0.000000000000000 ]
    mass: 12.010700
  - symbol: C # 174
    coordinates: [  0.416666666666667,  0.703645640574858,  0.000000000000000 ]
    mass: 12.010700
  - symbol: C # 175
    coordinates: [  0.472216666666667,  0.703645640574858,  0.000000000000000 ]
    mass: 12.010700
  - symbol: C # 176
    coordinates: [  0.500000000000000,  0.685603444662682,  0.000000000000000 ]
    mass: 12.010700
  - symbol: C # 177
    coordinates: [  0.555550000000000,  0.685603444662682,  0.000000000000000 ]
    mass: 12.010700
  - symbol: C # 178
    coordinates: [  0.583333333333333,  0.703645640574858,  0.000000000000000 ]
    mass: 12.010700
  - symbol: C # 179
    coordinates: [  0.638883333333333,  0.703645640574858,  0.000000000000000 ]
    mass: 12.010700
  - symbol: C # 180
    coordinates: [  0.666666666666667,  0.685603444662682,  0.000000000000000 ]
    mass: 12.010700
  - symbol: C # 181
    coordinates: [  0.333333333333333,  0.721687836487034,  0.000000000000000 ]
    mass: 12.010700
  - symbol: C # 182
    coordinates: [  0.388883333333333,  0.721687836487034,  0.000000000000000 ]
    mass: 12.010700
  - symbol: C # 183
    coordinates: [  0.416666666666667,  0.739730032399209,  0.000000000000000 ]
    mass: 12.010700
  - symbol: C # 184
    coordinates: [  0.472216666666667,  0.739730032399209,  0.000000000000000 ]
    mass: 12.010700
  - symbol: C # 185
    coordinates: [  0.500000000000000,  0.721687836487034,  0.000000000000000 ]
    mass: 12.010700
  - symbol: C # 186
    coordinates: [  0.555550000000000,  0.721687836487034,  0.000000000000000 ]
    mass: 12.010700
  - symbol: C # 187
    coordinates: [  0.583333333333333,  0.739730032399209,  0.000000000000000 ]
    mass: 12.010700
  - symbol: C # 188
    coordinates: [  0.638883333333333,  0.739730032399209,  0.000000000000000 ]
    mass: 12.010700
  - symbol: C # 189
    coordinates: [  0.666666666666667,  0.721687836487034,  0.000000000000000 ]
    mass: 12.010700
  - symbol: C # 190
    coordinates: [  0.333333333333333,  0.757772228311385,  0.000000000000000 ]
    mass: 12.010700
  - symbol: C # 191
    coordinates: [  0.388883333333333,  0.757772228311385,  0.000000000000000 ]
    mass: 12.010700
  - symbol: C # 192
    coordinates: [  0.416666666666667,  0.775814424223561,  0.000000000000000 ]
    mass: 12.010700
  - symbol: C # 193
    coordinates: [  0.472216666666667,  0.775814424223561,  0.000000000000000 ]
    mass: 12.010700
  - symbol: C # 194
    coordinates: [  0.500000000000000,  0.757772228311385,  0.000000000000000 ]
    mass: 12.010700
  - symbol: C # 195
    coordinates: [  0.555550000000000,  0.757772228311385,  0.000000000000000 ]
    mass: 12.010700
  - symbol: C # 196
    coordinates: [  0.583333333333333,  0.775814424223561,  0.000000000000000 ]
    mass: 12.010700
  - symbol: C # 197
    coordinates: [  0.638883333333333,  0.775814424223561,  0.000000000000000 ]
    mass: 12.010700
  - symbol: C # 198
    coordinates: [  0.666666666666667,  0.757772228311385,  0.000000000000000 ]
    mass: 12.010700
  - symbol: C # 199
    coordinates: [  0.333333333333333,  0.793856620135737,  0.000000000000000 ]
    mass: 12.010700
  - symbol: C # 200
    coordinates: [  0.388883333333333,  0.793856620135737,  0.000000000000000 ]
    mass: 12.010700
  - symbol: C # 201
    coordinates: [  0.416666666666667,  0.811898816047913,  0.000000000000000 ]
    mass: 12.010700
  - symbol: C # 202
    coordinates: [  0.472216666666667,  0.811898816047913,  0.000000000000000 ]
    mass: 12.010700
  - symbol: C # 203
    coordinates: [  0.500000000000000,  0.793856620135737,  0.000000000000000 ]
    mass: 12.010700
  - symbol: C # 204
    coordinates: [  0.555550000000000,  0.793856620135737,  0.000000000000000 ]
    mass: 12.010700
  - symbol: C # 205
    coordinates: [  0.583333333333333,  0.811898816047913,  0.000000000000000 ]
    mass: 12.010700
  - symbol: C # 206
    coordinates: [  0.638883333333333,  0.811898816047913,  0.000000000000000 ]
    mass: 12.010700
  - symbol: C # 207
    coordinates: [  0.666666666666667,  0.793856620135737,  0.000000000000000 ]
    mass: 12.010700
  - symbol: C # 208
    coordinates: [  0.333333333333333,  0.829941011960089,  0.000000000000000 ]
    mass: 12.010700
  - symbol: C # 209
    coordinates: [  0.388883333333333,  0.829941011960089,  0.000000000000000 ]
    mass: 12.010700
  - symbol: C # 210
    coordinates: [  0.416666666666667,  0.847983207872264,  0.000000000000000 ]
    mass: 12.010700
  - symbol: C # 211
    coordinates: [  0.472216666666667,  0.847983207872264,  0.000000000000000 ]
    mass: 12.010700
  - symbol: C # 212
    coordinates: [  0.500000000000000,  0.829941011960089,  0.000000000000000 ]
    mass: 12.010700
  - symbol: C # 213
    coordinates: [  0.555550000000000,  0.829941011960089,  0.000000000000000 ]
    mass: 12.010700
  - symbol: C # 214
    coordinates: [  0.583333333333333,  0.847983207872264,  0.000000000000000 ]
    mass: 12.010700
  - symbol: C # 215
    coordinates: [  0.638883333333333,  0.847983207872264,  0.000000000000000 ]
    mass: 12.010700
  - symbol: C # 216
    coordinates: [  0.666666666666667,  0.829941011960089,  0.000000000000000 ]
    mass: 12.010700
  - symbol: C # 217
    coordinates: [  0.333333333333333,  0.866025403784440,  0.000000000000000 ]
    mass: 12.010700
  - symbol: C # 218
    coordinates: [  0.388883333333333,  0.866025403784440,  0.000000000000000 ]
    mass: 12.010700
  - symbol: C # 219
    coordinates: [  0.416666666666667,  0.884067599696616,  0.000000000000000 ]
    mass: 12.010700
  - symbol: C # 220
    coordinates: [  0.472216666666667,  0.884067599696616,  0.000000000000000 ]
    mass: 12.010700
  - symbol: C # 221
    coordinates: [  0.500000000000000,  0.866025403784440,  0.000000000000000 ]
    mass: 12.010700
  - symbol: C # 222
    coordinates: [  0.555550000000000,  0.866025403784440,  0.000000000000000 ]
    mass: 12.010700
  - symbol: C # 223
    coordinates: [  0.583333333333333,  0.884067599696616,  0.000000000000000 ]
    mass: 12.010700
  - symbol: C # 224
    coordinates: [  0.638883333333333,  0.884067599696616,  0.000000000000000 ]
    mass: 12.010700
  - symbol: C # 225
    coordinates: [  0.666666666666667,  0.866025403784440,  0.000000000000000 ]
    mass: 12.010700
  - symbol: C # 226
    coordinates: [  0.333333333333333,  0.902109795608792,  0.000000000000000 ]
    mass: 12.010700
  - symbol: C # 227
    coordinates: [  0.388883333333333,  0.902109795608792,  0.000000000000000 ]
    mass: 12.010700
  - symbol: C # 228
    coordinates: [  0.416666666666667,  0.920151991520968,  0.000000000000000 ]
    mass: 12.010700
  - symbol: C # 229
    coordinates: [  0.472216666666667,  0.920151991520968,  0.000000000000000 ]
    mass: 12.010700
  - symbol: C # 230
    coordinates: [  0.500000000000000,  0.902109795608792,  0.000000000000000 ]
    mass: 12.010700
  - symbol: C # 231
    coordinates: [  0.555550000000000,  0.902109795608792,  0.000000000000000 ]
    mass: 12.010700
  - symbol: C # 232
    coordinates: [  0.583333333333333,  0.920151991520968,  0.000000000000000 ]
    mass: 12.010700
  - symbol: C # 233
    coordinates: [  0.638883333333333,  0.920151991520968,  0.000000000000000 ]
    mass: 12.010700
  - symbol: C # 234
    coordinates: [  0.666666666666667,  0.902109795608792,  0.000000000000000 ]
    mass: 12.010700
  - symbol: C # 235
    coordinates: [  0.333333333333333,  0.938194187433144,  0.000000000000000 ]
    mass: 12.010700
  - symbol: C # 236
    coordinates: [  0.388883333333333,  0.938194187433144,  0.000000000000000 ]
    mass: 12.010700
  - symbol: C # 237
    coordinates: [  0.416666666666667,  0.956236383345319,  0.000000000000000 ]
    mass: 12.010700
  - symbol: C # 238
    coordinates: [  0.472216666666667,  0.956236383345319,  0.000000000000000 ]
    mass: 12.010700
  - symbol: C # 239
    coordinates: [  0.500000000000000,  0.938194187433144,  0.000000000000000 ]
    mass: 12.010700
  - symbol: C # 240
    coordinates: [  0.555550000000000,  0.938194187433144,  0.000000000000000 ]
    mass: 12.010700
  - symbol: C # 241
    coordinates: [  0.583333333333333,  0.956236383345319,  0.000000000000000 ]
    mass: 12.010700
  - symbol: C # 242
    coordinates: [  0.638883333333333,  0.956236383345319,  0.000000000000000 ]
    mass: 12.010700
  - symbol: C # 243
    coordinates: [  0.666666666666667,  0.938194187433144,  0.000000000000000 ]
    mass: 12.010700
  - symbol: C # 244
    coordinates: [  0.333333333333333,  0.974278579257495,  0.000000000000000 ]
    mass: 12.010700
  - symbol: C # 245
    coordinates: [  0.388883333333333,  0.974278579257495,  0.000000000000000 ]
    mass: 12.010700