phonopy:
  version: "2.33.2"
  frequency_unit_conversion_factor: 15.633302
  symmetry_tolerance: 1.00000e-05
  configuration:
    atom_name: "C"
    dim: "1 5 1"
    band: "0 0 0  0 0.5 0"
    band_points: "51"
    force_sets: "FORCE_SETS"

physical_unit:
  atomic_mass: "AMU"
  length: "angstrom"
  force: "eV/angstrom"
  force_constants: "eV/angstrom^2"

space_group:
  type: "Pmm2"
  number: 25
  Hall_symbol: "P 2 -2"

supercell_matrix:
- [   1,   0,   0 ]
- [   0,   5,   0 ]
- [   0,   0,   1 ]

primitive_cell:
  lattice:
  - [    76.680000000000007,     0.000000000000000,     0.000000000000000 ] # a
  - [     0.000000000000000,     4.919024293495621,     0.000000000000000 ] # b
  - [     0.000000000000000,     0.000000000000000,    28.399999999999999 ] # c
  points:
  - symbol: C # 1
    coordinates: [  0.333333333333333,  0.000000000000000,  0.000000000000000 ]
    mass: 12.010700
  - symbol: C # 2
    coordinates: [  0.351850000000000,  0.000000000000000,  0.000000000000000 ]
    mass: 12.010700
  - symbol: C # 3
    coordinates: [  0.361111111111111,  0.250000000000000,  0.000000000000000 ]
    mass: 12.010700
  - symbol: C # 4
    coordinates: [  0.379627777777778,  0.250000000000000,  0.000000000000000 ]
    mass: 12.010700
  - symbol: C # 5
    coordinates: [  0.388888888888889,  0.000000000000000,  0.000000000000000 ]
    mass: 12.010700
  - symbol: C # 6
    coordinates: [  0.407405555555556,  0.000000000000000,  0.000000000000000 ]
    mass: 12.010700
  - symbol: C # 7
    coordinates: [  0.416666666666667,  0.250000000000000,  0.000000000000000 ]
    mass: 12.010700
  - symbol: C # 8
    coordinates: [  0.435183333333333,  0.250000000000000,  0.000000000000000 ]
    mass: 12.010700
  - symbol: C # 9
    coordinates: [  0.444444444444444,  0.000000000000000,  0.000000000000000 ]
    mass: 12.010700
  - symbol: C # 10
    coordinates: [  0.462961111111111,  0.000000000000000,  0.000000000000000 ]
    mass: 12.010700
  - symbol: C # 11
    coordinates: [  0.472222222222222,  0.250000000000000,  0.000000000000000 ]
    mass: 12.010700
  - symbol: C # 12
    coordinates: [  0.490738888888889,  0.250000000000000,  0.000000000000000 ]
    mass: 12.010700
  - symbol: C # 13
    coordinates: [  0.500000000000000,  0.000000000000000,  0.000000000000000 ]
    mass: 12.010700
  - symbol: C # 14
    coordinates: [  0.518516666666667,  0.000000000000000,  0.000000000000000 ]
    mass: 12.010700
  - symbol: C # 15
    coordinates: [  0.527777777777778,  0.250000000000000,  0.000000000000000 ]
    mass: 12.010700
  - symbol: C # 16
    coordinates: [  0.546294444444444,  0.250000000000000,  0.000000000000000 ]
    mass: 12.010700
  - symbol: C # 17
    coordinates: [  0.555555555555555,  0.000000000000000,  0.000000000000000 ]
    mass: 12.010700
  - symbol: C # 18
    coordinates: [  0.574072222222222,  0.000000000000000,  0.000000000000000 ]
    mass: 12.010700
  - symbol: C # 19
    coordinates: [  0.583333333333333,  0.250000000000000,  0.000000000000000 ]
    mass: 12.010700
  - symbol: C # 20
    coordinates: [  0.601850000000000,  0.250000000000000,  0.000000000000000 ]
    mass: 12.010700
  - symbol: C # 21
    coordinates: [  0.611111111111111,  0.000000000000000,  0.000000000000000 ]
    mass: 12.010700
  - symbol: C # 22
    coordinates: [  0.629627777777778,  0.000000000000000,  0.000000000000000 ]
    mass: 12.010700
  - symbol: C # 23
    coordinates: [  0.638888888888889,  0.250000000000000,  0.000000000000000 ]
    mass: 12.010700
  - symbol: C # 24
    coordinates: [  0.657405555555555,  0.250000000000000,  0.000000000000000 ]
    mass: 12.010700
  - symbol: C # 25
    coordinates: [  0.666666666666666,  0.000000000000000,  0.000000000000000 ]
    mass: 12.010700
  - symbol: C # 26
    coordinates: [  0.333333333333333,  0.500000000000000,  0.000000000000000 ]
    mass: 12.010700
  - symbol: C # 27
    coordinates: [  0.351850000000000,  0.500000000000000,  0.000000000000000 ]
    mass: 12.010700
  - symbol: C # 28
    coordinates: [  0.361111111111111,  0.750000000000000,  0.000000000000000 ]
    mass: 12.010700
  - symbol: C # 29
    coordinates: [  0.379627777777778,  0.750000000000000,  0.000000000000000 ]
    mass: 12.010700
  - symbol: C # 30
    coordinates: [  0.388888888888889,  0.500000000000000,  0.000000000000000 ]
    mass: 12.010700
  - symbol: C # 31
    coordinates: [  0.407405555555556,  0.500000000000000,  0.000000000000000 ]
    mass: 12.010700
  - symbol: C # 32
    coordinates: [  0.416666666666667,  0.750000000000000,  0.000000000000000 ]
    mass: 12.010700
  - symbol: C # 33
    coordinates: [  0.435183333333333,  0.750000000000000,  0.000000000000000 ]
    mass: 12.010700
  - symbol: C # 34
    coordinates: [  0.444444444444444,  0.500000000000000,  0.000000000000000 ]
    mass: 12.010700
  - symbol: C # 35
    coordinates: [  0.462961111111111,  0.500000000000000,  0.000000000000000 ]
    mass: 12.010700
  - symbol: C # 36
    coordinates: [  0.472222222222222,  0.750000000000000,  0.000000000000000 ]
    mass: 12.010700
  - symbol: C # 37
    coordinates: [  0.490738888888889,  0.750000000000000,  0.000000000000000 ]
    mass: 12.010700
  - symbol: C # 38
    coordinates: [  0.500000000000000,  0.500000000000000,  0.000000000000000 ]
    mass: 12.010700
  - symbol: C # 39
    coordinates: [  0.518516666666667,  0.500000000000000,  0.000000000000000 ]
    mass: 12.010700
  - symbol: C # 40
    coordinates: [  0.527777777777778,  0.750000000000000,  0.000000000000000 ]
    mass: 12.010700
  - symbol: C # 41
    coordinates: [  0.546294444444444,  0.750000000000000,  0.000000000000000 ]
    mass: 12.010700
  - symbol: C # 42
    coordinates: [  0.555555555555555,  0.500000000000000,  0.000000000000000 ]
    mass: 12.010700
  - symbol: C # 43
    coordinates: [  0.574072222222222,  0.500000000000000,  0.000000000000000 ]
    mass: 12.010700
  - symbol: C # 44
    coordinates: [  0.583333333333333,  0.750000000000000,  0.000000000000000 ]
    mass: 12.010700
  - symbol: C # 45
    coordinates: [  0.601850000000000,  0.750000000000000,  0.000000000000000 ]
    mass: 12.010700
  - symbol: C # 46
    coordinates: [  0.611111111111111,  0.500000000000000,  0.000000000000000 ]
    mass: 12.010700
  - symbol: C # 47
    coordinates: [  0.629627777777778,  0.500000000000000,  0.000000000000000 ]
    mass: 12.010700
  - symbol: C # 48
    coordinates: [  0.638888888888889,  0.750000000000000,  0.000000000000000 ]
    mass: 12.010700
  - symbol: C # 49
    coordinates: [  0.657405555555555,  0.750000000000000,  0.000000000000000 ]
    mass: 12.010700
  - symbol: C # 50
    coordinates: [  0.666666666666666,  0.500000000000000,  0.000000000000000 ]
    mass: 12.010700
  reciprocal_lattice: # without 2pi
  - [     0.013041210224309,     0.000000000000000,     0.000000000000000 ] # a*
  - [     0.000000000000000,     0.203292348306206,     0.000000000000000 ] # b*
  - [     0.000000000000000,     0.000000000000000,     0.035211267605634 ] # c*

unit_cell:
  lattice:
  - [    76.680000000000007,     0.000000000000000,     0.000000000000000 ] # a
  - [     0.000000000000000,     4.919024293495620,     0.000000000000000 ] # b
  - [     0.000000000000000,     0.000000000000000,    28.399999999999999 ] # c
  points:
  - symbol: C # 1
    coordinates: [  0.333333333333333,  0.000000000000000,  0.000000000000000 ]
    mass: 12.010700
    reduced_to: 1
  - symbol: C # 2
    coordinates: [  0.351850000000000,  0.000000000000000,  0.000000000000000 ]
    mass: 12.010700
    reduced_to: 2
  - symbol: C # 3
    coordinates: [  0.361111111111111,  0.250000000000000,  0.000000000000000 ]
    mass: 12.010700
    reduced_to: 3
  - symbol: C # 4
    coordinates: [  0.379627777777778,  0.250000000000000,  0.000000000000000 ]
    mass: 12.010700
    reduced_to: 4
  - symbol: C # 5
    coordinates: [  0.388888888888889,  0.000000000000000,  0.000000000000000 ]
    mass: 12.010700
    reduced_to: 5
  - symbol: C # 6
    coordinates: [  0.407405555555556,  0.000000000000000,  0.000000000000000 ]
    mass: 12.010700
    reduced_to: 6
  - symbol: C # 7
    coordinates: [  0.416666666666667,  0.250000000000000,  0.000000000000000 ]
    mass: 12.010700
    reduced_to: 7
  - symbol: C # 8
    coordinates: [  0.435183333333333,  0.250000000000000,  0.000000000000000 ]
    mass: 12.010700
    reduced_to: 8
  - symbol: C # 9
    coordinates: [  0.444444444444444,  0.000000000000000,  0.000000000000000 ]
    mass: 12.010700
    reduced_to: 9
  - symbol: C # 10
    coordinates: [  0.462961111111111,  0.000000000000000,  0.000000000000000 ]
    mass: 12.010700
    reduced_to: 10
  - symbol: C # 11
    coordinates: [  0.472222222222222,  0.250000000000000,  0.000000000000000 ]
    mass: 12.010700
    reduced_to: 11
  - symbol: C # 12
    coordinates: [  0.490738888888889,  0.250000000000000,  0.000000000000000 ]
    mass: 12.010700
    reduced_to: 12
  - symbol: C # 13
    coordinates: [  0.500000000000000,  0.000000000000000,  0.000000000000000 ]
    mass: 12.010700
    reduced_to: 13
  - symbol: C # 14
    coordinates: [  0.518516666666667,  0.000000000000000,  0.000000000000000 ]
    mass: 12.010700
    reduced_to: 14
  - symbol: C # 15
    coordinates: [  0.527777777777778,  0.250000000000000,  0.000000000000000 ]
    mass: 12.010700
    reduced_to: 15
  - symbol: C # 16
    coordinates: [  0.546294444444444,  0.250000000000000,  0.000000000000000 ]
    mass: 12.010700
    reduced_to: 16
  - symbol: C # 17
    coordinates: [  0.555555555555555,  0.000000000000000,  0.000000000000000 ]
    mass: 12.010700
    reduced_to: 17
  - symbol: C # 18
    coordinates: [  0.574072222222222,  0.000000000000000,  0.000000000000000 ]
    mass: 12.010700
    reduced_to: 18
  - symbol: C # 19
    coordinates: [  0.583333333333333,  0.250000000000000,  0.000000000000000 ]
    mass: 12.010700
    reduced_to: 19
  - symbol: C # 20
    coordinates: [  0.601850000000000,  0.250000000000000,  0.000000000000000 ]
    mass: 12.010700
    reduced_to: 20
  - symbol: C # 21
    coordinates: [  0.611111111111111,  0.000000000000000,  0.000000000000000 ]
    mass: 12.010700
    reduced_to: 21
  - symbol: C # 22
    coordinates: [  0.629627777777778,  0.000000000000000,  0.000000000000000 ]
    mass: 12.010700
    reduced_to: 22
  - symbol: C # 23
    coordinates: [  0.638888888888889,  0.250000000000000,  0.000000000000000 ]
    mass: 12.010700
    reduced_to: 23
  - symbol: C # 24
    coordinates: [  0.657405555555555,  0.250000000000000,  0.000000000000000 ]
    mass: 12.010700
    reduced_to: 24
  - symbol: C # 25
    coordinates: [  0.666666666666666,  0.000000000000000,  0.000000000000000 ]
    mass: 12.010700
    reduced_to: 25
  - symbol: C # 26
    coordinates: [  0.333333333333333,  0.500000000000000,  0.000000000000000 ]
    mass: 12.010700
    reduced_to: 26
  - symbol: C # 27
    coordinates: [  0.351850000000000,  0.500000000000000,  0.000000000000000 ]
    mass: 12.010700
    reduced_to: 27
  - symbol: C # 28
    coordinates: [  0.361111111111111,  0.750000000000000,  0.000000000000000 ]
    mass: 12.010700
    reduced_to: 28
  - symbol: C # 29
    coordinates: [  0.379627777777778,  0.750000000000000,  0.000000000000000 ]
    mass: 12.010700
    reduced_to: 29
  - symbol: C # 30
    coordinates: [  0.388888888888889,  0.500000000000000,  0.000000000000000 ]
    mass: 12.010700
    reduced_to: 30
  - symbol: C # 31
    coordinates: [  0.407405555555556,  0.500000000000000,  0.000000000000000 ]
    mass: 12.010700
    reduced_to: 31
  - symbol: C # 32
    coordinates: [  0.416666666666667,  0.750000000000000,  0.000000000000000 ]
    mass: 12.010700
    reduced_to: 32
  - symbol: C # 33
    coordinates: [  0.435183333333333,  0.750000000000000,  0.000000000000000 ]
    mass: 12.010700
    reduced_to: 33
  - symbol: C # 34
    coordinates: [  0.444444444444444,  0.500000000000000,  0.000000000000000 ]
    mass: 12.010700
    reduced_to: 34
  - symbol: C # 35
    coordinates: [  0.462961111111111,  0.500000000000000,  0.000000000000000 ]
    mass: 12.010700
    reduced_to: 35
  - symbol: C # 36
    coordinates: [  0.472222222222222,  0.750000000000000,  0.000000000000000 ]
    mass: 12.010700
    reduced_to: 36
  - symbol: C # 37
    coordinates: [  0.490738888888889,  0.750000000000000,  0.000000000000000 ]
    mass: 12.010700
    reduced_to: 37
  - symbol: C # 38
    coordinates: [  0.500000000000000,  0.500000000000000,  0.000000000000000 ]
    mass: 12.010700
    reduced_to: 38
  - symbol: C # 39
    coordinates: [  0.518516666666667,  0.500000000000000,  0.000000000000000 ]
    mass: 12.010700
    reduced_to: 39
  - symbol: C # 40
    coordinates: [  0.527777777777778,  0.750000000000000,  0.000000000000000 ]
    mass: 12.010700
    reduced_to: 40
  - symbol: C # 41
    coordinates: [  0.546294444444444,  0.750000000000000,  0.000000000000000 ]
    mass: 12.010700
    reduced_to: 41
  - symbol: C # 42
    coordinates: [  0.555555555555555,  0.500000000000000,  0.000000000000000 ]
    mass: 12.010700
    reduced_to: 42
  - symbol: C # 43
    coordinates: [  0.574072222222222,  0.500000000000000,  0.000000000000000 ]
    mass: 12.010700
    reduced_to: 43
  - symbol: C # 44
    coordinates: [  0.583333333333333,  0.750000000000000,  0.000000000000000 ]
    mass: 12.010700
    reduced_to: 44
  - symbol: C # 45
    coordinates: [  0.601850000000000,  0.750000000000000,  0.000000000000000 ]
    mass: 12.010700
    reduced_to: 45
  - symbol: C # 46
    coordinates: [  0.611111111111111,  0.500000000000000,  0.000000000000000 ]
    mass: 12.010700
    reduced_to: 46
  - symbol: C # 47
    coordinates: [  0.629627777777778,  0.500000000000000,  0.000000000000000 ]
    mass: 12.010700
    reduced_to: 47
  - symbol: C # 48
    coordinates: [  0.638888888888889,  0.750000000000000,  0.000000000000000 ]
    mass: 12.010700
    reduced_to: 48
  - symbol: C # 49
    coordinates: [  0.657405555555555,  0.750000000000000,  0.000000000000000 ]
    mass: 12.010700
    reduced_to: 49
  - symbol: C # 50
    coordinates: [  0.666666666666666,  0.500000000000000,  0.000000000000000 ]
    mass: 12.010700
    reduced_to: 50

supercell:
  lattice:
  - [    76.680000000000007,     0.000000000000000,     0.000000000000000 ] # a
  - [     0.000000000000000,    24.595121467478101,     0.000000000000000 ] # b
  - [     0.000000000000000,     0.000000000000000,    28.399999999999999 ] # c
  points:
  - symbol: C # 1
    coordinates: [  0.333333333333333,  0.000000000000000,  0.000000000000000 ]
    mass: 12.010700
    reduced_to: 1
  - symbol: C # 2
    coordinates: [  0.333333333333333,  0.200000000000000,  0.000000000000000 ]
    mass: 12.010700
    reduced_to: 1
  - symbol: C # 3
    coordinates: [  0.333333333333333,  0.400000000000000,  0.000000000000000 ]
    mass: 12.010700
    reduced_to: 1
  - symbol: C # 4
    coordinates: [  0.333333333333333,  0.600000000000000,  0.000000000000000 ]
    mass: 12.010700
    reduced_to: 1
  - symbol: C # 5
    coordinates: [  0.333333333333333,  0.800000000000000,  0.000000000000000 ]
    mass: 12.010700
    reduced_to: 1
  - symbol: C # 6
    coordinates: [  0.351850000000000,  0.000000000000000,  0.000000000000000 ]
    mass: 12.010700
    reduced_to: 6
  - symbol: C # 7
    coordinates: [  0.351850000000000,  0.200000000000000,  0.000000000000000 ]
    mass: 12.010700
    reduced_to: 6
  - symbol: C # 8
    coordinates: [  0.351850000000000,  0.400000000000000,  0.000000000000000 ]
    mass: 12.010700
    reduced_to: 6
  - symbol: C # 9
    coordinates: [  0.351850000000000,  0.600000000000000,  0.000000000000000 ]
    mass: 12.010700
    reduced_to: 6
  - symbol: C # 10
    coordinates: [  0.351850000000000,  0.800000000000000,  0.000000000000000 ]
    mass: 12.010700
    reduced_to: 6
  - symbol: C # 11
    coordinates: [  0.361111111111111,  0.050000000000000,  0.000000000000000 ]
    mass: 12.010700
    reduced_to: 11
  - symbol: C # 12
    coordinates: [  0.361111111111111,  0.250000000000000,  0.000000000000000 ]
    mass: 12.010700
    reduced_to: 11
  - symbol: C # 13
    coordinates: [  0.361111111111111,  0.450000000000000,  0.000000000000000 ]
    mass: 12.010700
    reduced_to: 11
  - symbol: C # 14
    coordinates: [  0.361111111111111,  0.650000000000000,  0.000000000000000 ]
    mass: 12.010700
    reduced_to: 11
  - symbol: C # 15
    coordinates: [  0.361111111111111,  0.850000000000000,  0.000000000000000 ]
    mass: 12.010700
    reduced_to: 11
  - symbol: C # 16
    coordinates: [  0.379627777777778,  0.050000000000000,  0.000000000000000 ]
    mass: 12.010700
    reduced_to: 16
  - symbol: C # 17
    coordinates: [  0.379627777777778,  0.250000000000000,  0.000000000000000 ]
    mass: 12.010700
    reduced_to: 16
  - symbol: C # 18
    coordinates: [  0.379627777777778,  0.450000000000000,  0.000000000000000 ]
    mass: 12.010700
    reduced_to: 16
  - symbol: C # 19
    coordinates: [  0.379627777777778,  0.650000000000000,  0.000000000000000 ]
    mass: 12.010700
    reduced_to: 16
  - symbol: C # 20
    coordinates: [  0.379627777777778,  0.850000000000000,  0.000000000000000 ]
    mass: 12.010700
    reduced_to: 16
  - symbol: C # 21
    coordinates: [  0.388888888888889,  0.000000000000000,  0.000000000000000 ]
    mass: 12.010700
    reduced_to: 21
  - symbol: C # 22
    coordinates: [  0.388888888888889,  0.200000000000000,  0.000000000000000 ]
    mass: 12.010700
    reduced_to: 21
  - symbol: C # 23
    coordinates: [  0.388888888888889,  0.400000000000000,  0.000000000000000 ]
    mass: 12.010700
    reduced_to: 21
  - symbol: C # 24
    coordinates: [  0.388888888888889,  0.600000000000000,  0.000000000000000 ]
    mass: 12.010700
    reduced_to: 21
  - symbol: C # 25
    coordinates: [  0.388888888888889,  0.800000000000000,  0.000000000000000 ]
    mass: 12.010700
    reduced_to: 21
  - symbol: C # 26
    coordinates: [  0.407405555555556,  0.000000000000000,  0.000000000000000 ]
    mass: 12.010700
    reduced_to: 26
  - symbol: C # 27
    coordinates: [  0.407405555555556,  0.200000000000000,  0.000000000000000 ]
    mass: 12.010700
    reduced_to: 26
  - symbol: C # 28
    coordinates: [  0.407405555555556,  0.400000000000000,  0.000000000000000 ]
    mass: 12.010700
    reduced_to: 26
  - symbol: C # 29
    coordinates: [  0.407405555555556,  0.600000000000000,  0.000000000000000 ]
    mass: 12.010700
    reduced_to: 26
  - symbol: C # 30
    coordinates: [  0.407405555555556,  0.800000000000000,  0.000000000000000 ]
    mass: 12.010700
    reduced_to: 26
  - symbol: C # 31
    coordinates: [  0.416666666666667,  0.050000000000000,  0.000000000000000 ]
    mass: 12.010700
    reduced_to: 31
  - symbol: C # 32
    coordinates: [  0.416666666666667,  0.250000000000000,  0.000000000000000 ]
    mass: 12.010700
    reduced_to: 31
  - symbol: C # 33
    coordinates: [  0.416666666666667,  0.450000000000000,  0.000000000000000 ]
    mass: 12.010700
    reduced_to: 31
  - symbol: C # 34
    coordinates: [  0.416666666666667,  0.650000000000000,  0.000000000000000 ]
    mass: 12.010700
    reduced_to: 31
  - symbol: C # 35
    coordinates: [  0.416666666666667,  0.850000000000000,  0.000000000000000 ]
    mass: 12.010700
    reduced_to: 31
  - symbol: C # 36
    coordinates: [  0.435183333333333,  0.050000000000000,  0.000000000000000 ]
    mass: 12.010700
    reduced_to: 36
  - symbol: C # 37
    coordinates: [  0.435183333333333,  0.250000000000000,  0.000000000000000 ]
    mass: 12.010700
    reduced_to: 36
  - symbol: C # 38
    coordinates: [  0.435183333333333,  0.450000000000000,  0.000000000000000 ]
    mass: 12.010700
    reduced_to: 36
  - symbol: C # 39
    coordinates: [  0.435183333333333,  0.650000000000000,  0.000000000000000 ]
    mass: 12.010700
    reduced_to: 36
  - symbol: C # 40
    coordinates: [  0.435183333333333,  0.850000000000000,  0.000000000000000 ]
    mass: 12.010700
    reduced_to: 36
  - symbol: C # 41
    coordinates: [  0.444444444444444,  0.000000000000000,  0.000000000000000 ]
    mass: 12.010700
    reduced_to: 41
  - symbol: C # 42
    coordinates: [  0.444444444444444,  0.200000000000000,  0.000000000000000 ]
    mass: 12.010700
    reduced_to: 41
  - symbol: C # 43
    coordinates: [  0.444444444444444,  0.400000000000000,  0.000000000000000 ]
    mass: 12.010700
    reduced_to: 41
  - symbol: C # 44
    coordinates: [  0.444444444444444,  0.600000000000000,  0.000000000000000 ]
    mass: 12.010700
    reduced_to: 41
  - symbol: C # 45
    coordinates: [  0.444444444444444,  0.800000000000000,  0.000000000000000 ]
    mass: 12.010700
    reduced_to: 41
  - symbol: C # 46
    coordinates: [  0.462961111111111,  0.000000000000000,  0.000000000000000 ]
    mass: 12.010700
    reduced_to: 46
  - symbol: C # 47
    coordinates: [  0.462961111111111,  0.200000000000000,  0.000000000000000 ]
    mass: 12.010700
    reduced_to: 46
  - symbol: C # 48
    coordinates: [  0.462961111111111,  0.400000000000000,  0.000000000000000 ]
    mass: 12.010700
    reduced_to: 46
  - symbol: C # 49
    coordinates: [  0.462961111111111,  0.600000000000000,  0.000000000000000 ]
    mass: 12.010700
    reduced_to: 46
  - symbol: C # 50
    coordinates: [  0.462961111111111,  0.800000000000000,  0.000000000000000 ]
    mass: 12.010700
    reduced_to: 46
  - symbol: C # 51
    coordinates: [  0.472222222222222,  0.050000000000000,  0.000000000000000 ]
    mass: 12.010700
    reduced_to: 51
  - symbol: C # 52
    coordinates: [  0.472222222222222,  0.250000000000000,  0.000000000000000 ]
    mass: 12.010700
    reduced_to: 51
  - symbol: C # 53
    coordinates: [  0.472222222222222,  0.450000000000000,  0.000000000000000 ]
    mass: 12.010700
    reduced_to: 51
  - symbol: C # 54
    coordinates: [  0.472222222222222,  0.650000000000000,  0.000000000000000 ]
    mass: 12.010700
    reduced_to: 51
  - symbol: C # 55
    coordinates: [  0.472222222222222,  0.850000000000000,  0.000000000000000 ]
    mass: 12.010700
    reduced_to: 51
  - symbol: C # 56
    coordinates: [  0.490738888888889,  0.050000000000000,  0.000000000000000 ]
    mass: 12.010700
    reduced_to: 56
  - symbol: C # 57
    coordinates: [  0.490738888888889,  0.250000000000000,  0.000000000000000 ]
    mass: 12.010700
    reduced_to: 56
  - symbol: C # 58
    coordinates: [  0.490738888888889,  0.450000000000000,  0.000000000000000 ]
    mass: 12.010700
    reduced_to: 56
  - symbol: C # 59
    coordinates: [  0.490738888888889,  0.650000000000000,  0.000000000000000 ]
    mass: 12.010700
    reduced_to: 56
  - symbol: C # 60
    coordinates: [  0.490738888888889,  0.850000000000000,  0.000000000000000 ]
    mass: 12.010700
    reduced_to: 56
  - symbol: C # 61
    coordinates: [  0.500000000000000,  0.000000000000000,  0.000000000000000 ]
    mass: 12.010700
    reduced_to: 61
  - symbol: C # 62
    coordinates: [  0.500000000000000,  0.200000000000000,  0.000000000000000 ]
    mass: 12.010700
    reduced_to: 61
  - symbol: C # 63
    coordinates: [  0.500000000000000,  0.400000000000000,  0.000000000000000 ]
    mass: 12.010700
    reduced_to: 61
  - symbol: C # 64
    coordinates: [  0.500000000000000,  0.600000000000000,  0.000000000000000 ]
    mass: 12.010700
    reduced_to: 61
  - symbol: C # 65
    coordinates: [  0.500000000000000,  0.800000000000000,  0.000000000000000 ]
    mass: 12.010700
    reduced_to: 61
  - symbol: C # 66
    coordinates: [  0.518516666666667,  0.000000000000000,  0.000000000000000 ]
    mass: 12.010700
    reduced_to: 66
  - symbol: C # 67
    coordinates: [  0.518516666666667,  0.200000000000000,  0.000000000000000 ]
    mass: 12.010700
    reduced_to: 66
  - symbol: C # 68
    coordinates: [  0.518516666666667,  0.400000000000000,  0.000000000000000 ]
    mass: 12.010700
    reduced_to: 66
  - symbol: C # 69
    coordinates: [  0.518516666666667,  0.600000000000000,  0.000000000000000 ]
    mass: 12.010700
    reduced_to: 66
  - symbol: C # 70
    coordinates: [  0.518516666666667,  0.800000000000000,  0.000000000000000 ]
    mass: 12.010700
    reduced_to: 66
  - symbol: C # 71
    coordinates: [  0.527777777777778,  0.050000000000000,  0.000000000000000 ]
    mass: 12.010700
    reduced_to: 71
  - symbol: C # 72
    coordinates: [  0.527777777777778,  0.250000000000000,  0.000000000000000 ]
    mass: 12.010700
    reduced_to: 71
  - symbol: C # 73
    coordinates: [  0.527777777777778,  0.450000000000000,  0.000000000000000 ]
    mass: 12.010700
    reduced_to: 71
  - symbol: C # 74
    coordinates: [  0.527777777777778,  0.650000000000000,  0.000000000000000 ]
    mass: 12.010700
    reduced_to: 71
  - symbol: C # 75
    coordinates: [  0.527777777777778,  0.850000000000000,  0.000000000000000 ]
    mass: 12.010700
    reduced_to: 71
  - symbol: C # 76
    coordinates: [  0.546294444444444,  0.050000000000000,  0.000000000000000 ]
    mass: 12.010700
    reduced_to: 76
  - symbol: C # 77
    coordinates: [  0.546294444444444,  0.250000000000000,  0.000000000000000 ]
    mass: 12.010700
    reduced_to: 76
  - symbol: C # 78
    coordinates: [  0.546294444444444,  0.450000000000000,  0.000000000000000 ]
    mass: 12.010700
    reduced_to: 76
  - symbol: C # 79
    coordinates: [  0.546294444444444,  0.650000000000000,  0.000000000000000 ]
    mass: 12.010700
    reduced_to: 76
  - symbol: C # 80
    coordinates: [  0.546294444444444,  0.850000000000000,  0.000000000000000 ]
    mass: 12.010700
    reduced_to: 76
  - symbol: C # 81
    coordinates: [  0.555555555555555,  0.000000000000000,  0.000000000000000 ]
    mass: 12.010700
    reduced_to: 81
  - symbol: C # 82
    coordinates: [  0.555555555555555,  0.200000000000000,  0.000000000000000 ]
    mass: 12.010700
    reduced_to: 81
  - symbol: C # 83
    coordinates: [  0.555555555555555,  0.400000000000000,  0.000000000000000 ]
    mass: 12.010700
    reduced_to: 81
  - symbol: C # 84
    coordinates: [  0.555555555555555,  0.600000000000000,  0.000000000000000 ]
    mass: 12.010700
    reduced_to: 81
  - symbol: C # 85
    coordinates: [  0.555555555555555,  0.800000000000000,  0.000000000000000 ]
    mass: 12.010700
    reduced_to: 81
  - symbol: C # 86
    coordinates: [  0.574072222222222,  0.000000000000000,  0.000000000000000 ]
    mass: 12.010700
    reduced_to: 86
  - symbol: C # 87
    coordinates: [  0.574072222222222,  0.200000000000000,  0.000000000000000 ]
    mass: 12.010700
    reduced_to: 86
  - symbol: C # 88
    coordinates: [  0.574072222222222,  0.400000000000000,  0.000000000000000 ]
    mass: 12.010700
    reduced_to: 86
  - symbol: C # 89
    coordinates: [  0.574072222222222,  0.600000000000000,  0.000000000000000 ]
    mass: 12.010700
    reduced_to: 86
  - symbol: C # 90
    coordinates: [  0.574072222222222,  0.800000000000000,  0.000000000000000 ]
    mass: 12.010700
    reduced_to: 86
  - symbol: C # 91
    coordinates: [  0.583333333333333,  0.050000000000000,  0.000000000000000 ]
    mass: 12.010700
    reduced_to: 91
  - symbol: C # 92
    coordinates: [  0.583333333333333,  0.250000000000000,  0.000000000000000 ]
    mass: 12.010700
    reduced_to: 91
  - symbol: C # 93
    coordinates: [  0.583333333333333,  0.450000000000000,  0.000000000000000 ]
    mass: 12.010700
    reduced_to: 91
  - symbol: C # 94
    coordinates: [  0.583333333333333,  0.650000000000000,  0.000000000000000 ]
    mass: 12.010700
    reduced_to: 91
  - symbol: C # 95
    coordinates: [  0.583333333333333,  0.850000000000000,  0.000000000000000 ]
    mass: 12.010700
    reduced_to: 91
  - symbol: C # 96
    coordinates: [  0.601850000000000,  0.050000000000000,  0.000000000000000 ]
    mass: 12.010700
    reduced_to: 96
  - symbol: C # 97
    coordinates: [  0.601850000000000,  0.250000000000000,  0.000000000000000 ]
    mass: 12.010700
    reduced_to: 96
  - symbol: C # 98
    coordinates: [  0.601850000000000,  0.450000000000000,  0.000000000000000 ]
    mass: 12.010700
    reduced_to: 96
  - symbol: C # 99
    coordinates: [  0.601850000000000,  0.650000000000000,  0.000000000000000 ]
    mass: 12.010700
    reduced_to: 96
  - symbol: C # 100
    coordinates: [  0.601850000000000,  0.850000000000000,  0.000000000000000 ]
    mass: 12.010700
    reduced_to: 96
  - symbol: C # 101
    coordinates: [  0.611111111111111,  0.000000000000000,  0.000000000000000 ]
    mass: 12.010700
    reduced_to: 101
  - symbol: C # 102
    coordinates: [  0.611111111111111,  0.200000000000000,  0.000000000000000 ]
    mass: 12.010700
    reduced_to: 101
  - symbol: C # 103
    coordinates: [  0.611111111111111,  0.400000000000000,  0.000000000000000 ]
    mass: 12.010700
    reduced_to: 101
  - symbol: C # 104
    coordinates: [  0.611111111111111,  0.600000000000000,  0.000000000000000 ]
    mass: 12.010700
    reduced_to: 101
  - symbol: C # 105
    coordinates: [  0.611111111111111,  0.800000000000000,  0.000000000000000 ]
    mass: 12.010700
    reduced_to: 101
  - symbol: C # 106
    coordinates: [  0.629627777777778,  0.000000000000000,  0.000000000000000 ]
    mass: 12.010700
    reduced_to: 106
  - symbol: C # 107
    coordinates: [  0.629627777777778,  0.200000000000000,  0.000000000000000 ]
    mass: 12.010700
    reduced_to: 106
  - symbol: C # 108
    coordinates: [  0.629627777777778,  0.400000000000000,  0.000000000000000 ]
    mass: 12.010700
    reduced_to: 106
  - symbol: C # 109
    coordinates: [  0.629627777777778,  0.600000000000000,  0.000000000000000 ]
    mass: 12.010700
    reduced_to: 106
  - symbol: C # 110
    coordinates: [  0.629627777777778,  0.800000000000000,  0.000000000000000 ]
    mass: 12.010700
    reduced_to: 106
  - symbol: C # 111
    coordinates: [  0.638888888888889,  0.050000000000000,  0.000000000000000 ]
    mass: 12.010700
    reduced_to: 111
  - symbol: C # 112
    coordinates: [  0.638888888888889,  0.250000000000000,  0.000000000000000 ]
    mass: 12.010700
    reduced_to: 111
  - symbol: C # 113
    coordinates: [  0.638888888888889,  0.450000000000000,  0.000000000000000 ]