(written by ASE)

1260 atoms
1 atom types

0.0      25.559999999999999  xlo xhi
0.0      340.79999999999995  ylo yhi
0.0      2.8399999999999999  zlo zhi

Atoms # atomic

     1   1      8.5199999999999996                       0                       0
     2   1      8.5199999999999996      68.159999999999997                       0
     3   1      8.5199999999999996      136.31999999999999                       0
     4   1      8.5199999999999996      204.47999999999996                       0
     5   1      8.5199999999999996      272.63999999999999                       0
     6   1      9.9398579999999992                       0                       0
     7   1      9.9398579999999992      68.159999999999997                       0
     8   1      9.9398579999999992      136.31999999999999                       0
     9   1      9.9398579999999992      204.47999999999996                       0
    10   1      9.9398579999999992      272.63999999999999                       0
    11   1      10.649999999999997      1.2297560733739159                       0
    12   1      10.649999999999997      69.389756073373903                       0
    13   1      10.649999999999997      137.54975607337391                       0
    14   1      10.649999999999997      205.70975607337391                       0
    15   1      10.649999999999997      273.86975607337388                       0
    16   1               12.069858      1.2297560733739159                       0
    17   1               12.069858      69.389756073373903                       0
    18   1               12.069858      137.54975607337391                       0
    19   1               12.069858      205.70975607337391                       0
    20   1               12.069858      273.86975607337388                       0
    21   1      12.779999999999999                       0                       0
    22   1      12.779999999999999      68.159999999999997                       0
    23   1      12.779999999999999      136.31999999999999                       0
    24   1      12.779999999999999      204.47999999999996                       0
    25   1      12.779999999999999      272.63999999999999                       0
    26   1      14.199857999999999                       0                       0
    27   1      14.199857999999999      68.159999999999997                       0
    28   1      14.199857999999999      136.31999999999999                       0
    29   1      14.199857999999999      204.47999999999996                       0
    30   1      14.199857999999999      272.63999999999999                       0
    31   1                   14.91      1.2297560733739159                       0
    32   1                   14.91      69.389756073373903                       0
    33   1                   14.91      137.54975607337391                       0
    34   1                   14.91      205.70975607337391                       0
    35   1                   14.91      273.86975607337388                       0
    36   1      16.329857999999998      1.2297560733739159                       0
    37   1      16.329857999999998      69.389756073373903                       0
    38   1      16.329857999999998      137.54975607337391                       0
    39   1      16.329857999999998      205.70975607337391                       0
    40   1      16.329857999999998      273.86975607337388                       0
    41   1      17.039999999999999                       0                       0
    42   1      17.039999999999999      68.159999999999997                       0
    43   1      17.039999999999999      136.31999999999999                       0
    44   1      17.039999999999999      204.47999999999996                       0
    45   1      17.039999999999999      272.63999999999999                       0
    46   1      8.5199999999999996      2.4595121467477981                       0
    47   1      8.5199999999999996       70.61951214674778                       0
    48   1      8.5199999999999996      138.77951214674781                       0
    49   1      8.5199999999999996       206.9395121467478                       0
    50   1      8.5199999999999996      275.09951214674777                       0
    51   1      9.9398579999999992      2.4595121467477981                       0
    52   1      9.9398579999999992       70.61951214674778                       0
    53   1      9.9398579999999992      138.77951214674781                       0
    54   1      9.9398579999999992       206.9395121467478                       0
    55   1      9.9398579999999992      275.09951214674777                       0
    56   1      10.649999999999997       3.689268220121714                       0
    57   1      10.649999999999997      71.849268220121701                       0
    58   1      10.649999999999997      140.00926822012173                       0
    59   1      10.649999999999997      208.16926822012169                       0
    60   1      10.649999999999997      276.32926822012166                       0
    61   1               12.069858       3.689268220121714                       0
    62   1               12.069858      71.849268220121701                       0
    63   1               12.069858      140.00926822012173                       0
    64   1               12.069858      208.16926822012169                       0
    65   1               12.069858      276.32926822012166                       0
    66   1      12.779999999999999      2.4595121467477981                       0
    67   1      12.779999999999999       70.61951214674778                       0
    68   1      12.779999999999999      138.77951214674781                       0
    69   1      12.779999999999999       206.9395121467478                       0
    70   1      12.779999999999999      275.09951214674777                       0
    71   1      14.199857999999999      2.4595121467477981                       0
    72   1      14.199857999999999       70.61951214674778                       0
    73   1      14.199857999999999      138.77951214674781                       0
    74   1      14.199857999999999       206.9395121467478                       0
    75   1      14.199857999999999      275.09951214674777                       0
    76   1                   14.91       3.689268220121714                       0
    77   1                   14.91      71.849268220121701                       0
    78   1                   14.91      140.00926822012173                       0
    79   1                   14.91      208.16926822012169                       0
    80   1                   14.91      276.32926822012166                       0
    81   1      16.329857999999998       3.689268220121714                       0
    82   1      16.329857999999998      71.849268220121701                       0
    83   1      16.329857999999998      140.00926822012173                       0
    84   1      16.329857999999998      208.16926822012169                       0
    85   1      16.329857999999998      276.32926822012166                       0
    86   1      17.039999999999999      2.4595121467477981                       0
    87   1      17.039999999999999       70.61951214674778                       0
    88   1      17.039999999999999      138.77951214674781                       0
    89   1      17.039999999999999       206.9395121467478                       0
    90   1      17.039999999999999      275.09951214674777                       0
    91   1      8.5199999999999996      4.9190242934956299                       0
    92   1      8.5199999999999996      73.079024293495621                       0
    93   1      8.5199999999999996      141.23902429349562                       0
    94   1      8.5199999999999996      209.39902429349559                       0
    95   1      8.5199999999999996      277.55902429349561                       0
    96   1      9.9398579999999992      4.9190242934956299                       0
    97   1      9.9398579999999992      73.079024293495621                       0
    98   1      9.9398579999999992      141.23902429349562                       0
    99   1      9.9398579999999992      209.39902429349559                       0
   100   1      9.9398579999999992      277.55902429349561                       0
   101   1      10.649999999999997       6.148780366869512                       0
   102   1      10.649999999999997      74.308780366869541                       0
   103   1      10.649999999999997      142.46878036686948                       0
   104   1      10.649999999999997      210.62878036686948                       0
   105   1      10.649999999999997      278.78878036686956                       0
   106   1               12.069858       6.148780366869512                       0
   107   1               12.069858      74.308780366869541                       0
   108   1               12.069858      142.46878036686948                       0
   109   1               12.069858      210.62878036686948                       0
   110   1               12.069858      278.78878036686956                       0
   111   1      12.779999999999999      4.9190242934956299                       0
   112   1      12.779999999999999      73.079024293495621                       0
   113   1      12.779999999999999      141.23902429349562                       0
   114   1      12.779999999999999      209.39902429349559                       0
   115   1      12.779999999999999      277.55902429349561                       0
   116   1      14.199857999999999      4.9190242934956299                       0
   117   1      14.199857999999999      73.079024293495621                       0
   118   1      14.199857999999999      141.23902429349562                       0
   119   1      14.199857999999999      209.39902429349559                       0
   120   1      14.199857999999999      277.55902429349561                       0
   121   1                   14.91       6.148780366869512                       0
   122   1                   14.91      74.308780366869541                       0
   123   1                   14.91      142.46878036686948                       0
   124   1                   14.91      210.62878036686948                       0
   125   1                   14.91      278.78878036686956                       0
   126   1      16.329857999999998       6.148780366869512                       0
   127   1      16.329857999999998      74.308780366869541                       0
   128   1      16.329857999999998      142.46878036686948                       0
   129   1      16.329857999999998      210.62878036686948                       0
   130   1      16.329857999999998      278.78878036686956                       0
   131   1      17.039999999999999      4.9190242934956299                       0
   132   1      17.039999999999999      73.079024293495621                       0
   133   1      17.039999999999999      141.23902429349562                       0
   134   1      17.039999999999999      209.39902429349559                       0
   135   1      17.039999999999999      277.55902429349561                       0
   136   1      8.5199999999999996      7.3785364402434279                       0
   137   1      8.5199999999999996      75.538536440243419                       0
   138   1      8.5199999999999996       143.6985364402434                       0
   139   1      8.5199999999999996      211.85853644024343                       0
   140   1      8.5199999999999996      280.01853644024345                       0
   141   1      9.9398579999999992      7.3785364402434279                       0
   142   1      9.9398579999999992      75.538536440243419                       0
   143   1      9.9398579999999992       143.6985364402434                       0
   144   1      9.9398579999999992      211.85853644024343                       0
   145   1      9.9398579999999992      280.01853644024345                       0
   146   1      10.649999999999997      8.6082925136173447                       0
   147   1      10.649999999999997       76.76829251361734                       0
   148   1      10.649999999999997      144.92829251361732                       0
   149   1      10.649999999999997      213.08829251361732                       0
   150   1      10.649999999999997      281.24829251361734                       0
   151   1               12.069858      8.6082925136173447                       0
   152   1               12.069858       76.76829251361734                       0
   153   1               12.069858      144.92829251361732                       0
   154   1               12.069858      213.08829251361732                       0
   155   1               12.069858      281.24829251361734                       0
   156   1      12.779999999999999      7.3785364402434279                       0
   157   1      12.779999999999999      75.538536440243419                       0
   158   1      12.779999999999999       143.6985364402434                       0
   159   1      12.779999999999999      211.85853644024343                       0
   160   1      12.779999999999999      280.01853644024345                       0
   161   1      14.199857999999999      7.3785364402434279                       0
   162   1      14.199857999999999      75.538536440243419                       0
   163   1      14.199857999999999       143.6985364402434                       0
   164   1      14.199857999999999      211.85853644024343                       0
   165   1      14.199857999999999      280.01853644024345                       0
   166   1                   14.91      8.6082925136173447                       0
   167   1                   14.91       76.76829251361734                       0
   168   1                   14.91      144.92829251361732                       0
   169   1                   14.91      213.08829251361732                       0
   170   1                   14.91      281.24829251361734                       0
   171   1      16.329857999999998      8.6082925136173447                       0
   172   1      16.329857999999998       76.76829251361734                       0
   173   1      16.329857999999998      144.92829251361732                       0
   174   1      16.329857999999998      213.08829251361732                       0
   175   1      16.329857999999998      281.24829251361734                       0
   176   1      17.039999999999999      7.3785364402434279                       0
   177   1      17.039999999999999      75.538536440243419                       0
   178   1      17.039999999999999       143.6985364402434                       0
   179   1      17.039999999999999      211.85853644024343                       0
   180   1      17.039999999999999      280.01853644024345                       0
   181   1      8.5199999999999996       9.838048586991226                       0
   182   1      8.5199999999999996      77.998048586991217                       0
   183   1      8.5199999999999996      146.15804858699121                       0
   184   1      8.5199999999999996      214.31804858699121                       0
   185   1      8.5199999999999996      282.47804858699124                       0
   186   1      9.9398579999999992       9.838048586991226                       0
   187   1      9.9398579999999992      77.998048586991217                       0
   188   1      9.9398579999999992      146.15804858699121                       0
   189   1      9.9398579999999992      214.31804858699121                       0
   190   1      9.9398579999999992      282.47804858699124                       0
   191   1      10.649999999999997      11.067804660365143                       0
   192   1      10.649999999999997      79.227804660365138                       0
   193   1      10.649999999999997      147.38780466036513                       0
   194   1      10.649999999999997       215.5478046603651                       0
   195   1      10.649999999999997      283.70780466036513                       0
   196   1               12.069858      11.067804660365143                       0
   197   1               12.069858      79.227804660365138                       0
   198   1               12.069858      147.38780466036513                       0
   199   1               12.069858       215.5478046603651                       0
   200   1               12.069858      283.70780466036513                       0
   201   1      12.779999999999999       9.838048586991226                       0
   202   1      12.779999999999999      77.998048586991217                       0
   203   1      12.779999999999999      146.15804858699121                       0
   204   1      12.779999999999999      214.31804858699121                       0
   205   1      12.779999999999999      282.47804858699124                       0
   206   1      14.199857999999999       9.838048586991226                       0
   207   1      14.199857999999999      77.998048586991217                       0
   208   1      14.199857999999999      146.15804858699121                       0
   209   1      14.199857999999999      214.31804858699121                       0
   210   1      14.199857999999999      282.47804858699124                       0
   211   1                   14.91      11.067804660365143                       0
   212   1                   14.91      79.227804660365138                       0
   213   1                   14.91      147.38780466036513                       0
   214   1                   14.91       215.5478046603651                       0
   215   1                   14.91      283.70780466036513                       0
   216   1      16.329857999999998      11.067804660365143                       0
   217   1      16.329857999999998      79.227804660365138                       0
   218   1      16.329857999999998      147.38780466036513                       0
   219   1      16.329857999999998       215.5478046603651                       0
   220   1      16.329857999999998      283.70780466036513                       0
   221   1      17.039999999999999       9.838048586991226                       0
   222   1      17.039999999999999      77.998048586991217                       0
   223   1      17.039999999999999      146.15804858699121                       0
   224   1      17.039999999999999      214.31804858699121                       0
   225   1      17.039999999999999      282.47804858699124                       0
   226   1      8.5199999999999996      12.297560733739058                       0
   227   1      8.5199999999999996      80.457560733739044                       0
   228   1      8.5199999999999996      148.61756073373905                       0
   229   1      8.5199999999999996      216.77756073373905                       0
   230   1      8.5199999999999996      284.93756073373902                       0
   231   1      9.9398579999999992      12.297560733739058                       0
   232   1      9.9398579999999992      80.457560733739044                       0
   233   1      9.9398579999999992      148.61756073373905                       0
   234   1      9.9398579999999992      216.77756073373905                       0
   235   1      9.9398579999999992      284.93756073373902                       0
   236   1      10.649999999999997      13.527316807112939                       0
   237   1      10.649999999999997      81.687316807112921                       0
   238   1      10.649999999999997      149.84731680711295                       0
   239   1      10.649999999999997      218.00731680711294                       0
   240   1      10.649999999999997      286.16731680711297                       0
   241   1               12.069858      13.527316807112939                       0
   242   1               12.069858      81.687316807112921                       0
   243   1               12.069858      149.84731680711295                       0
   244   1               12.069858      218.00731680711294                       0
   245   1               12.069858      286.16731680711297                       0
   246   1      12.779999999999999      12.297560733739058                       0
   247   1      12.779999999999999      80.457560733739044                       0
   248   1      12.779999999999999      148.61756073373905                       0
   249   1      12.779999999999999      216.77756073373905                       0
   250   1      12.779999999999999      284.93756073373902                       0
   251   1      14.199857999999999      12.297560733739058                       0
   252   1      14.199857999999999      80.457560733739044                       0
   253   1      14.199857999999999      148.61756073373905                       0
   254   1      14.199857999999999      216.77756073373905                       0
   255   1      14.199857999999999      284.93756073373902                       0
   256   1                   14.91      13.527316807112939                       0
   257   1                   14.91      81.687316807112921                       0
   258   1                   14.91      149.84731680711295                       0
   259   1                   14.91      218.00731680711294                       0
   260   1                   14.91      286.16731680711297                       0
   261   1      16.329857999999998      13.527316807112939                       0
   262   1      16.329857999999998      81.687316807112921                       0
   263   1      16.329857999999998      149.84731680711295                       0
   264   1      16.329857999999998      218.00731680711294                       0
   265   1      16.329857999999998      286.16731680711297                       0
   266   1      17.039999999999999      12.297560733739058                       0
   267   1      17.039999999999999      80.457560733739044                       0
   268   1      17.039999999999999      148.61756073373905                       0
   269   1      17.039999999999999      216.77756073373905                       0
   270   1      17.039999999999999      284.93756073373902                       0
   271   1      8.5199999999999996      14.757072880486856                       0
   272   1      8.5199999999999996      82.917072880486856                       0
   273   1      8.5199999999999996      151.07707288048687                       0
   274   1      8.5199999999999996      219.23707288048686                       0
   275   1      8.5199999999999996      287.39707288048686                       0
   276   1      9.9398579999999992      14.757072880486856                       0
   277   1      9.9398579999999992      82.917072880486856                       0
   278   1      9.9398579999999992      151.07707288048687                       0
   279   1      9.9398579999999992      219.23707288048686                       0
   280   1      9.9398579999999992      287.39707288048686                       0
   281   1      10.649999999999997      15.986828953860771                       0
   282   1      10.649999999999997      84.146828953860762                       0
   283   1      10.649999999999997      152.30682895386076                       0
   284   1      10.649999999999997      220.46682895386076                       0
   285   1      10.649999999999997      288.62682895386075                       0
   286   1               12.069858      15.986828953860771                       0
   287   1               12.069858      84.146828953860762                       0
   288   1               12.069858      152.30682895386076                       0
   289   1               12.069858      220.46682895386076                       0
   290   1               12.069858      288.62682895386075                       0
   291   1      12.779999999999999      14.757072880486856                       0
   292   1      12.779999999999999      82.917072880486856                       0
   293   1      12.779999999999999      151.07707288048687                       0
   294   1      12.779999999999999      219.23707288048686                       0
   295   1      12.779999999999999      287.39707288048686                       0
   296   1      14.199857999999999      14.757072880486856                       0
   297   1      14.199857999999999      82.917072880486856                       0
   298   1      14.199857999999999      151.07707288048687                       0
   299   1      14.199857999999999      219.23707288048686                       0
   300   1      14.199857999999999      287.39707288048686                       0
   301   1                   14.91      15.986828953860771                       0
   302   1                   14.91      84.146828953860762                       0
   303   1                   14.91      152.30682895386076                       0
   304   1                   14.91      220.46682895386076                       0
   305   1                   14.91      288.62682895386075                       0
   306   1      16.329857999999998      15.986828953860771                       0
   307   1      16.329857999999998      84.146828953860762                       0
   308   1      16.329857999999998      152.30682895386076                       0
   309   1      16.329857999999998      220.46682895386076                       0
   310   1      16.329857999999998      288.62682895386075                       0
   311   1      17.039999999999999      14.757072880486856                       0
   312   1      17.039999999999999      82.917072880486856                       0
   313   1      17.039999999999999      151.07707288048687                       0
   314   1      17.039999999999999      219.23707288048686                       0
   315   1      17.039999999999999      287.39707288048686                       0
   316   1      8.5199999999999996      17.216585027234654                       0
   317   1      8.5199999999999996      85.376585027234654                       0
   318   1      8.5199999999999996      153.53658502723462                       0
   319   1      8.5199999999999996      221.69658502723462                       0
   320   1      8.5199999999999996      289.85658502723464                       0
   321   1      9.9398579999999992      17.216585027234654                       0
   322   1      9.9398579999999992      85.376585027234654                       0
   323   1      9.9398579999999992      153.53658502723462                       0
   324   1      9.9398579999999992      221.69658502723462                       0
   325   1      9.9398579999999992      289.85658502723464                       0
   326   1      10.649999999999997      18.446341100608571                       0
   327   1      10.649999999999997      86.606341100608574                       0
   328   1      10.649999999999997      154.76634110060854                       0
   329   1      10.649999999999997      222.92634110060857                       0
   330   1      10.649999999999997      291.08634110060854                       0
   331   1               12.069858      18.446341100608571                       0
   332   1               12.069858      86.606341100608574                       0
   333   1               12.069858      154.76634110060854                       0
   334   1               12.069858      222.92634110060857                       0
   335   1               12.069858      291.08634110060854                       0
   336   1      12.779999999999999      17.216585027234654                       0
   337   1      12.779999999999999      85.376585027234654                       0
   338   1      12.779999999999999      153.53658502723462                       0
   339   1      12.779999999999999      221.69658502723462                       0
   340   1      12.779999999999999      289.85658502723464                       0
   341   1      14.199857999999999      17.216585027234654                       0
   342   1      14.199857999999999      85.376585027234654                       0
   343   1      14.199857999999999      153.53658502723462                       0
   344   1      14.199857999999999      221.69658502723462                       0
   345   1      14.199857999999999      289.85658502723464                       0
   346   1                   14.91      18.446341100608571                       0
   347   1                   14.91      86.606341100608574                       0
   348   1                   14.91      154.76634110060854                       0
   349   1                   14.91      222.92634110060857                       0
   350   1                   14.91      291.08634110060854                       0
   351   1      16.329857999999998      18.446341100608571                       0
   352   1      16.329857999999998      86.606341100608574                       0
   353   1      16.329857999999998      154.76634110060854                       0
   354   1      16.329857999999998      222.92634110060857                       0
   355   1      16.329857999999998      291.08634110060854                       0
   356   1      17.039999999999999      17.216585027234654                       0
   357   1      17.039999999999999      85.376585027234654                       0
   358   1      17.039999999999999      153.53658502723462                       0
   359   1      17.039999999999999      221.69658502723462                       0