(written by ASE)

1440 atoms
1 atom types

0.0      51.119999999999997  xlo xhi
0.0      73.785364402434297  ylo yhi
0.0                      10  zlo zhi

Atoms # atomic

     1   1   0.0056599342771946398   0.0081694114463348021   0.0011071858914699999
     2   1      12.779999999999999                       0                       0
     3   1      25.559999999999999                       0                       0
     4   1      38.339999999999996                       0                       0
     5   1      1.4198580000000001                       0                       0
     6   1      14.199857999999999                       0                       0
     7   1               26.979858                       0                       0
     8   1      39.759858000000001                       0                       0
     9   1      2.1300000000000017      1.2297560733739075                       0
    10   1                   14.91      1.2297560733739075                       0
    11   1      27.689999999999998      1.2297560733739075                       0
    12   1      40.469999999999999      1.2297560733739075                       0
    13   1      3.5498580000000013      1.2297560733739075                       0
    14   1      16.329858000000002      1.2297560733739075                       0
    15   1      29.109857999999996      1.2297560733739075                       0
    16   1      41.889857999999997      1.2297560733739075                       0
    17   1       4.259999999999998                       0                       0
    18   1      17.039999999999999                       0                       0
    19   1                   29.82                       0                       0
    20   1      42.600000000000001                       0                       0
    21   1      5.6798579999999976                       0                       0
    22   1      18.459857999999997                       0                       0
    23   1      31.239858000000002                       0                       0
    24   1      44.019857999999999                       0                       0
    25   1      6.3899999999999997      1.2297560733739075                       0
    26   1      19.169999999999998      1.2297560733739075                       0
    27   1      31.949999999999999      1.2297560733739075                       0
    28   1      44.729999999999997      1.2297560733739075                       0
    29   1      7.8098579999999993      1.2297560733739075                       0
    30   1               20.589858      1.2297560733739075                       0
    31   1      33.369858000000001      1.2297560733739075                       0
    32   1      46.149857999999995      1.2297560733739075                       0
    33   1      8.5200000000000014                       0                       0
    34   1      21.299999999999994                       0                       0
    35   1      34.079999999999998                       0                       0
    36   1      46.859999999999992                       0                       0
    37   1       9.939858000000001                       0                       0
    38   1      22.719857999999995                       0                       0
    39   1      35.499857999999996                       0                       0
    40   1      48.279857999999997                       0                       0
    41   1      10.649999999999997      1.2297560733739075                       0
    42   1      23.429999999999996      1.2297560733739075                       0
    43   1      36.209999999999994      1.2297560733739075                       0
    44   1      48.989999999999995      1.2297560733739075                       0
    45   1      12.069857999999998      1.2297560733739075                       0
    46   1      24.849858000000005      1.2297560733739075                       0
    47   1      37.629857999999999      1.2297560733739075                       0
    48   1               50.409858      1.2297560733739075                       0
    49   1                       0      2.4595121467478074                       0
    50   1      12.779999999999999      2.4595121467478074                       0
    51   1      25.559999999999999      2.4595121467478074                       0
    52   1      38.339999999999996      2.4595121467478074                       0
    53   1      1.4198580000000001      2.4595121467478074                       0
    54   1      14.199857999999999      2.4595121467478074                       0
    55   1               26.979858      2.4595121467478074                       0
    56   1      39.759858000000001      2.4595121467478074                       0
    57   1      2.1300000000000017      3.6892682201217148                       0
    58   1                   14.91      3.6892682201217148                       0
    59   1      27.689999999999998      3.6892682201217148                       0
    60   1      40.469999999999999      3.6892682201217148                       0
    61   1      3.5498580000000013      3.6892682201217148                       0
    62   1      16.329858000000002      3.6892682201217148                       0
    63   1      29.109857999999996      3.6892682201217148                       0
    64   1      41.889857999999997      3.6892682201217148                       0
    65   1       4.259999999999998      2.4595121467478074                       0
    66   1      17.039999999999999      2.4595121467478074                       0
    67   1                   29.82      2.4595121467478074                       0
    68   1      42.600000000000001      2.4595121467478074                       0
    69   1      5.6798579999999976      2.4595121467478074                       0
    70   1      18.459857999999997      2.4595121467478074                       0
    71   1      31.239858000000002      2.4595121467478074                       0
    72   1      44.019857999999999      2.4595121467478074                       0
    73   1      6.3899999999999997      3.6892682201217148                       0
    74   1      19.169999999999998      3.6892682201217148                       0
    75   1      31.949999999999999      3.6892682201217148                       0
    76   1      44.729999999999997      3.6892682201217148                       0
    77   1      7.8098579999999993      3.6892682201217148                       0
    78   1               20.589858      3.6892682201217148                       0
    79   1      33.369858000000001      3.6892682201217148                       0
    80   1      46.149857999999995      3.6892682201217148                       0
    81   1      8.5200000000000014      2.4595121467478074                       0
    82   1      21.299999999999994      2.4595121467478074                       0
    83   1      34.079999999999998      2.4595121467478074                       0
    84   1      46.859999999999992      2.4595121467478074                       0
    85   1       9.939858000000001      2.4595121467478074                       0
    86   1      22.719857999999995      2.4595121467478074                       0
    87   1      35.499857999999996      2.4595121467478074                       0
    88   1      48.279857999999997      2.4595121467478074                       0
    89   1      10.649999999999997      3.6892682201217148                       0
    90   1      23.429999999999996      3.6892682201217148                       0
    91   1      36.209999999999994      3.6892682201217148                       0
    92   1      48.989999999999995      3.6892682201217148                       0
    93   1      12.069857999999998      3.6892682201217148                       0
    94   1      24.849858000000005      3.6892682201217148                       0
    95   1      37.629857999999999      3.6892682201217148                       0
    96   1               50.409858      3.6892682201217148                       0
    97   1                       0      4.9190242934956219                       0
    98   1      12.779999999999999      4.9190242934956219                       0
    99   1      25.559999999999999      4.9190242934956219                       0
   100   1      38.339999999999996      4.9190242934956219                       0
   101   1      1.4198580000000001      4.9190242934956219                       0
   102   1      14.199857999999999      4.9190242934956219                       0
   103   1               26.979858      4.9190242934956219                       0
   104   1      39.759858000000001      4.9190242934956219                       0
   105   1      2.1300000000000017      6.1487803668695227                       0
   106   1                   14.91      6.1487803668695227                       0
   107   1      27.689999999999998      6.1487803668695227                       0
   108   1      40.469999999999999      6.1487803668695227                       0
   109   1      3.5498580000000013      6.1487803668695227                       0
   110   1      16.329858000000002      6.1487803668695227                       0
   111   1      29.109857999999996      6.1487803668695227                       0
   112   1      41.889857999999997      6.1487803668695227                       0
   113   1       4.259999999999998      4.9190242934956219                       0
   114   1      17.039999999999999      4.9190242934956219                       0
   115   1                   29.82      4.9190242934956219                       0
   116   1      42.600000000000001      4.9190242934956219                       0
   117   1      5.6798579999999976      4.9190242934956219                       0
   118   1      18.459857999999997      4.9190242934956219                       0
   119   1      31.239858000000002      4.9190242934956219                       0
   120   1      44.019857999999999      4.9190242934956219                       0
   121   1      6.3899999999999997      6.1487803668695227                       0
   122   1      19.169999999999998      6.1487803668695227                       0
   123   1      31.949999999999999      6.1487803668695227                       0
   124   1      44.729999999999997      6.1487803668695227                       0
   125   1      7.8098579999999993      6.1487803668695227                       0
   126   1               20.589858      6.1487803668695227                       0
   127   1      33.369858000000001      6.1487803668695227                       0
   128   1      46.149857999999995      6.1487803668695227                       0
   129   1      8.5200000000000014      4.9190242934956219                       0
   130   1      21.299999999999994      4.9190242934956219                       0
   131   1      34.079999999999998      4.9190242934956219                       0
   132   1      46.859999999999992      4.9190242934956219                       0
   133   1       9.939858000000001      4.9190242934956219                       0
   134   1      22.719857999999995      4.9190242934956219                       0
   135   1      35.499857999999996      4.9190242934956219                       0
   136   1      48.279857999999997      4.9190242934956219                       0
   137   1      10.649999999999997      6.1487803668695227                       0
   138   1      23.429999999999996      6.1487803668695227                       0
   139   1      36.209999999999994      6.1487803668695227                       0
   140   1      48.989999999999995      6.1487803668695227                       0
   141   1      12.069857999999998      6.1487803668695227                       0
   142   1      24.849858000000005      6.1487803668695227                       0
   143   1      37.629857999999999      6.1487803668695227                       0
   144   1               50.409858      6.1487803668695227                       0
   145   1                       0      7.3785364402434297                       0
   146   1      12.779999999999999      7.3785364402434297                       0
   147   1      25.559999999999999      7.3785364402434297                       0
   148   1      38.339999999999996      7.3785364402434297                       0
   149   1      1.4198580000000001      7.3785364402434297                       0
   150   1      14.199857999999999      7.3785364402434297                       0
   151   1               26.979858      7.3785364402434297                       0
   152   1      39.759858000000001      7.3785364402434297                       0
   153   1      2.1300000000000017      8.6082925136173376                       0
   154   1                   14.91      8.6082925136173376                       0
   155   1      27.689999999999998      8.6082925136173376                       0
   156   1      40.469999999999999      8.6082925136173376                       0
   157   1      3.5498580000000013      8.6082925136173376                       0
   158   1      16.329858000000002      8.6082925136173376                       0
   159   1      29.109857999999996      8.6082925136173376                       0
   160   1      41.889857999999997      8.6082925136173376                       0
   161   1       4.259999999999998      7.3785364402434297                       0
   162   1      17.039999999999999      7.3785364402434297                       0
   163   1                   29.82      7.3785364402434297                       0
   164   1      42.600000000000001      7.3785364402434297                       0
   165   1      5.6798579999999976      7.3785364402434297                       0
   166   1      18.459857999999997      7.3785364402434297                       0
   167   1      31.239858000000002      7.3785364402434297                       0
   168   1      44.019857999999999      7.3785364402434297                       0
   169   1      6.3899999999999997      8.6082925136173376                       0
   170   1      19.169999999999998      8.6082925136173376                       0
   171   1      31.949999999999999      8.6082925136173376                       0
   172   1      44.729999999999997      8.6082925136173376                       0
   173   1      7.8098579999999993      8.6082925136173376                       0
   174   1               20.589858      8.6082925136173376                       0
   175   1      33.369858000000001      8.6082925136173376                       0
   176   1      46.149857999999995      8.6082925136173376                       0
   177   1      8.5200000000000014      7.3785364402434297                       0
   178   1      21.299999999999994      7.3785364402434297                       0
   179   1      34.079999999999998      7.3785364402434297                       0
   180   1      46.859999999999992      7.3785364402434297                       0
   181   1       9.939858000000001      7.3785364402434297                       0
   182   1      22.719857999999995      7.3785364402434297                       0
   183   1      35.499857999999996      7.3785364402434297                       0
   184   1      48.279857999999997      7.3785364402434297                       0
   185   1      10.649999999999997      8.6082925136173376                       0
   186   1      23.429999999999996      8.6082925136173376                       0
   187   1      36.209999999999994      8.6082925136173376                       0
   188   1      48.989999999999995      8.6082925136173376                       0
   189   1      12.069857999999998      8.6082925136173376                       0
   190   1      24.849858000000005      8.6082925136173376                       0
   191   1      37.629857999999999      8.6082925136173376                       0
   192   1               50.409858      8.6082925136173376                       0
   193   1                       0      9.8380485869912366                       0
   194   1      12.779999999999999      9.8380485869912366                       0
   195   1      25.559999999999999      9.8380485869912366                       0
   196   1      38.339999999999996      9.8380485869912366                       0
   197   1      1.4198580000000001      9.8380485869912366                       0
   198   1      14.199857999999999      9.8380485869912366                       0
   199   1               26.979858      9.8380485869912366                       0
   200   1      39.759858000000001      9.8380485869912366                       0
   201   1      2.1300000000000017      11.067804660365145                       0
   202   1                   14.91      11.067804660365145                       0
   203   1      27.689999999999998      11.067804660365145                       0
   204   1      40.469999999999999      11.067804660365145                       0
   205   1      3.5498580000000013      11.067804660365145                       0
   206   1      16.329858000000002      11.067804660365145                       0
   207   1      29.109857999999996      11.067804660365145                       0
   208   1      41.889857999999997      11.067804660365145                       0
   209   1       4.259999999999998      9.8380485869912366                       0
   210   1      17.039999999999999      9.8380485869912366                       0
   211   1                   29.82      9.8380485869912366                       0
   212   1      42.600000000000001      9.8380485869912366                       0
   213   1      5.6798579999999976      9.8380485869912366                       0
   214   1      18.459857999999997      9.8380485869912366                       0
   215   1      31.239858000000002      9.8380485869912366                       0
   216   1      44.019857999999999      9.8380485869912366                       0
   217   1      6.3899999999999997      11.067804660365145                       0
   218   1      19.169999999999998      11.067804660365145                       0
   219   1      31.949999999999999      11.067804660365145                       0
   220   1      44.729999999999997      11.067804660365145                       0
   221   1      7.8098579999999993      11.067804660365145                       0
   222   1               20.589858      11.067804660365145                       0
   223   1      33.369858000000001      11.067804660365145                       0
   224   1      46.149857999999995      11.067804660365145                       0
   225   1      8.5200000000000014      9.8380485869912366                       0
   226   1      21.299999999999994      9.8380485869912366                       0
   227   1      34.079999999999998      9.8380485869912366                       0
   228   1      46.859999999999992      9.8380485869912366                       0
   229   1       9.939858000000001      9.8380485869912366                       0
   230   1      22.719857999999995      9.8380485869912366                       0
   231   1      35.499857999999996      9.8380485869912366                       0
   232   1      48.279857999999997      9.8380485869912366                       0
   233   1      10.649999999999997      11.067804660365145                       0
   234   1      23.429999999999996      11.067804660365145                       0
   235   1      36.209999999999994      11.067804660365145                       0
   236   1      48.989999999999995      11.067804660365145                       0
   237   1      12.069857999999998      11.067804660365145                       0
   238   1      24.849858000000005      11.067804660365145                       0
   239   1      37.629857999999999      11.067804660365145                       0
   240   1               50.409858      11.067804660365145                       0
   241   1                       0      12.297560733739052                       0
   242   1      12.779999999999999      12.297560733739052                       0
   243   1      25.559999999999999      12.297560733739052                       0
   244   1      38.339999999999996      12.297560733739052                       0
   245   1      1.4198580000000001      12.297560733739052                       0
   246   1      14.199857999999999      12.297560733739052                       0
   247   1               26.979858      12.297560733739052                       0
   248   1      39.759858000000001      12.297560733739052                       0
   249   1      2.1300000000000017      13.527316807112951                       0
   250   1                   14.91      13.527316807112951                       0
   251   1      27.689999999999998      13.527316807112951                       0
   252   1      40.469999999999999      13.527316807112951                       0
   253   1      3.5498580000000013      13.527316807112951                       0
   254   1      16.329858000000002      13.527316807112951                       0
   255   1      29.109857999999996      13.527316807112951                       0
   256   1      41.889857999999997      13.527316807112951                       0
   257   1       4.259999999999998      12.297560733739052                       0
   258   1      17.039999999999999      12.297560733739052                       0
   259   1                   29.82      12.297560733739052                       0
   260   1      42.600000000000001      12.297560733739052                       0
   261   1      5.6798579999999976      12.297560733739052                       0
   262   1      18.459857999999997      12.297560733739052                       0
   263   1      31.239858000000002      12.297560733739052                       0
   264   1      44.019857999999999      12.297560733739052                       0
   265   1      6.3899999999999997      13.527316807112951                       0
   266   1      19.169999999999998      13.527316807112951                       0
   267   1      31.949999999999999      13.527316807112951                       0
   268   1      44.729999999999997      13.527316807112951                       0
   269   1      7.8098579999999993      13.527316807112951                       0
   270   1               20.589858      13.527316807112951                       0
   271   1      33.369858000000001      13.527316807112951                       0
   272   1      46.149857999999995      13.527316807112951                       0
   273   1      8.5200000000000014      12.297560733739052                       0
   274   1      21.299999999999994      12.297560733739052                       0
   275   1      34.079999999999998      12.297560733739052                       0
   276   1      46.859999999999992      12.297560733739052                       0
   277   1       9.939858000000001      12.297560733739052                       0
   278   1      22.719857999999995      12.297560733739052                       0
   279   1      35.499857999999996      12.297560733739052                       0
   280   1      48.279857999999997      12.297560733739052                       0
   281   1      10.649999999999997      13.527316807112951                       0
   282   1      23.429999999999996      13.527316807112951                       0
   283   1      36.209999999999994      13.527316807112951                       0
   284   1      48.989999999999995      13.527316807112951                       0
   285   1      12.069857999999998      13.527316807112951                       0
   286   1      24.849858000000005      13.527316807112951                       0
   287   1      37.629857999999999      13.527316807112951                       0
   288   1               50.409858      13.527316807112951                       0
   289   1                       0      14.757072880486859                       0
   290   1      12.779999999999999      14.757072880486859                       0
   291   1      25.559999999999999      14.757072880486859                       0
   292   1      38.339999999999996      14.757072880486859                       0
   293   1      1.4198580000000001      14.757072880486859                       0
   294   1      14.199857999999999      14.757072880486859                       0
   295   1               26.979858      14.757072880486859                       0
   296   1      39.759858000000001      14.757072880486859                       0
   297   1      2.1300000000000017      15.986828953860767                       0
   298   1                   14.91      15.986828953860767                       0
   299   1      27.689999999999998      15.986828953860767                       0
   300   1      40.469999999999999      15.986828953860767                       0
   301   1      3.5498580000000013      15.986828953860767                       0
   302   1      16.329858000000002      15.986828953860767                       0
   303   1      29.109857999999996      15.986828953860767                       0
   304   1      41.889857999999997      15.986828953860767                       0
   305   1       4.259999999999998      14.757072880486859                       0
   306   1      17.039999999999999      14.757072880486859                       0
   307   1                   29.82      14.757072880486859                       0
   308   1      42.600000000000001      14.757072880486859                       0
   309   1      5.6798579999999976      14.757072880486859                       0
   310   1      18.459857999999997      14.757072880486859                       0
   311   1      31.239858000000002      14.757072880486859                       0
   312   1      44.019857999999999      14.757072880486859                       0
   313   1      6.3899999999999997      15.986828953860767                       0
   314   1      19.169999999999998      15.986828953860767                       0
   315   1      31.949999999999999      15.986828953860767                       0
   316   1      44.729999999999997      15.986828953860767                       0
   317   1      7.8098579999999993      15.986828953860767                       0
   318   1               20.589858      15.986828953860767                       0
   319   1      33.369858000000001      15.986828953860767                       0
   320   1      46.149857999999995      15.986828953860767                       0
   321   1      8.5200000000000014      14.757072880486859                       0
   322   1      21.299999999999994      14.757072880486859                       0
   323   1      34.079999999999998      14.757072880486859                       0
   324   1      46.859999999999992      14.757072880486859                       0
   325   1       9.939858000000001      14.757072880486859                       0
   326   1      22.719857999999995      14.757072880486859                       0
   327   1      35.499857999999996      14.757072880486859                       0
   328   1      48.279857999999997      14.757072880486859                       0
   329   1      10.649999999999997      15.986828953860767                       0
   330   1      23.429999999999996      15.986828953860767                       0
   331   1      36.209999999999994      15.986828953860767                       0
   332   1      48.989999999999995      15.986828953860767                       0
   333   1      12.069857999999998      15.986828953860767                       0
   334   1      24.849858000000005      15.986828953860767                       0
   335   1      37.629857999999999      15.986828953860767                       0
   336   1               50.409858      15.986828953860767                       0
   337   1                       0      17.216585027234675                       0
   338   1      12.779999999999999      17.216585027234675                       0
   339   1      25.559999999999999      17.216585027234675                       0
   340   1      38.339999999999996      17.216585027234675                       0
   341   1      1.4198580000000001      17.216585027234675                       0
   342   1      14.199857999999999      17.216585027234675                       0
   343   1               26.979858      17.216585027234675                       0
   344   1      39.759858000000001      17.216585027234675                       0
   345   1      2.1300000000000017      18.446341100608574                       0
   346   1                   14.91      18.446341100608574                       0
   347   1      27.689999999999998      18.446341100608574                       0
   348   1      40.469999999999999      18.446341100608574                       0
   349   1      3.5498580000000013      18.446341100608574                       0
   350   1      16.329858000000002      18.446341100608574                       0
   351   1      29.109857999999996      18.446341100608574                       0
   352   1      41.889857999999997      18.446341100608574                       0
   353   1       4.259999999999998      17.216585027234675                       0
   354   1      17.039999999999999      17.216585027234675                       0
   355   1                   29.82      17.216585027234675                       0
   356   1      42.600000000000001      17.216585027234675                       0
   357   1      5.6798579999999976      17.216585027234675                       0
   358   1      18.459857999999997      17.216585027234675                       0
   359   1      31.239858000000002      17.216585027234675                       0