#

1260 atoms
1 atom types

0.0 25.56 xlo xhi
0.0 340.79999999999995 ylo yhi
0.0 2.84 zlo zhi

2.0867981457470897e-14 1.7389984547892414e-16 3.1530333899354444e-16 xy xz yz


Atom Type Labels

1 H


Atoms

1 H 8.52 0.0 0.0
2 H 8.520000000000003 68.16 0.0
3 H 8.520000000000008 136.32 0.0
4 H 8.520000000000012 204.47999999999996 0.0
5 H 8.520000000000016 272.64 0.0
6 H 9.939858 0.0 0.0
7 H 9.939858000000003 68.16 0.0
8 H 9.939858000000008 136.32 0.0
9 H 9.939858000000012 204.47999999999996 0.0
10 H 9.939858000000015 272.64 0.0
11 H 10.649999999999999 1.2297560733739048 0.0
12 H 10.650000000000002 69.3897560733739 0.0
13 H 10.650000000000007 137.54975607337389 0.0
14 H 10.650000000000011 205.7097560733739 0.0
15 H 10.650000000000015 273.8697560733739 0.0
16 H 12.069858 1.2297560733739048 0.0
17 H 12.069858000000004 69.3897560733739 0.0
18 H 12.069858000000009 137.54975607337389 0.0
19 H 12.069858000000012 205.7097560733739 0.0
20 H 12.069858000000016 273.8697560733739 0.0
21 H 12.78 0.0 0.0
22 H 12.780000000000003 68.16 0.0
23 H 12.780000000000008 136.32 0.0
24 H 12.780000000000012 204.47999999999996 0.0
25 H 12.780000000000015 272.64 0.0
26 H 14.199857999999999 0.0 0.0
27 H 14.199858000000003 68.16 0.0
28 H 14.199858000000008 136.32 0.0
29 H 14.199858000000011 204.47999999999996 0.0
30 H 14.199858000000015 272.64 0.0
31 H 14.91 1.2297560733739048 0.0
32 H 14.910000000000004 69.3897560733739 0.0
33 H 14.910000000000009 137.54975607337389 0.0
34 H 14.910000000000013 205.7097560733739 0.0
35 H 14.910000000000016 273.8697560733739 0.0
36 H 16.329857999999998 1.2297560733739048 0.0
37 H 16.329858 69.3897560733739 0.0
38 H 16.329858000000005 137.54975607337389 0.0
39 H 16.329858000000012 205.7097560733739 0.0
40 H 16.329858000000016 273.8697560733739 0.0
41 H 17.04 0.0 0.0
42 H 17.040000000000003 68.16 0.0
43 H 17.040000000000006 136.32 0.0
44 H 17.040000000000013 204.47999999999996 0.0
45 H 17.040000000000017 272.64 0.0
46 H 8.52 2.4595121467478096 0.0
47 H 8.520000000000003 70.61951214674781 0.0
48 H 8.520000000000008 138.7795121467478 0.0
49 H 8.520000000000012 206.9395121467478 0.0
50 H 8.520000000000016 275.09951214674777 0.0
51 H 9.939858 2.4595121467478096 0.0
52 H 9.939858000000003 70.61951214674781 0.0
53 H 9.939858000000008 138.7795121467478 0.0
54 H 9.939858000000012 206.9395121467478 0.0
55 H 9.939858000000015 275.09951214674777 0.0
56 H 10.649999999999999 3.689268220121715 0.0
57 H 10.650000000000002 71.84926822012171 0.0
58 H 10.650000000000007 140.00926822012173 0.0
59 H 10.650000000000011 208.1692682201217 0.0
60 H 10.650000000000016 276.32926822012166 0.0
61 H 12.069858 3.689268220121715 0.0
62 H 12.069858000000004 71.84926822012171 0.0
63 H 12.069858000000009 140.00926822012173 0.0
64 H 12.069858000000012 208.1692682201217 0.0
65 H 12.069858000000018 276.32926822012166 0.0
66 H 12.78 2.4595121467478096 0.0
67 H 12.780000000000003 70.61951214674781 0.0
68 H 12.780000000000008 138.7795121467478 0.0
69 H 12.780000000000012 206.9395121467478 0.0
70 H 12.780000000000015 275.09951214674777 0.0
71 H 14.199857999999999 2.4595121467478096 0.0
72 H 14.199858000000003 70.61951214674781 0.0
73 H 14.199858000000008 138.7795121467478 0.0
74 H 14.199858000000011 206.9395121467478 0.0
75 H 14.199858000000015 275.09951214674777 0.0
76 H 14.91 3.689268220121715 0.0
77 H 14.910000000000004 71.84926822012171 0.0
78 H 14.910000000000009 140.00926822012173 0.0
79 H 14.910000000000013 208.1692682201217 0.0
80 H 14.910000000000018 276.32926822012166 0.0
81 H 16.329857999999998 3.689268220121715 0.0
82 H 16.329858 71.84926822012171 0.0
83 H 16.329858000000005 140.00926822012173 0.0
84 H 16.329858000000012 208.1692682201217 0.0
85 H 16.329858000000016 276.32926822012166 0.0
86 H 17.04 2.4595121467478096 0.0
87 H 17.040000000000003 70.61951214674781 0.0
88 H 17.040000000000006 138.7795121467478 0.0
89 H 17.040000000000013 206.9395121467478 0.0
90 H 17.040000000000017 275.09951214674777 0.0
91 H 8.52 4.919024293495619 0.0
92 H 8.520000000000005 73.0790242934956 0.0
93 H 8.520000000000008 141.23902429349562 0.0
94 H 8.520000000000012 209.3990242934956 0.0
95 H 8.520000000000017 277.5590242934956 0.0
96 H 9.939858 4.919024293495619 0.0
97 H 9.939858000000005 73.0790242934956 0.0
98 H 9.939858000000008 141.23902429349562 0.0
99 H 9.939858000000012 209.3990242934956 0.0
100 H 9.939858000000017 277.5590242934956 0.0
101 H 10.649999999999999 6.148780366869525 0.0
102 H 10.650000000000004 74.30878036686953 0.0
103 H 10.650000000000007 142.4687803668695 0.0
104 H 10.650000000000011 210.62878036686948 0.0
105 H 10.650000000000016 278.78878036686956 0.0
106 H 12.069858 6.148780366869525 0.0
107 H 12.069858000000005 74.30878036686953 0.0
108 H 12.069858000000009 142.4687803668695 0.0
109 H 12.069858000000012 210.62878036686948 0.0
110 H 12.069858000000018 278.78878036686956 0.0
111 H 12.78 4.919024293495619 0.0
112 H 12.780000000000005 73.0790242934956 0.0
113 H 12.780000000000008 141.23902429349562 0.0
114 H 12.780000000000012 209.3990242934956 0.0
115 H 12.780000000000017 277.5590242934956 0.0
116 H 14.199857999999999 4.919024293495619 0.0
117 H 14.199858000000004 73.0790242934956 0.0
118 H 14.199858000000008 141.23902429349562 0.0
119 H 14.199858000000011 209.3990242934956 0.0
120 H 14.199858000000017 277.5590242934956 0.0
121 H 14.91 6.148780366869525 0.0
122 H 14.910000000000005 74.30878036686953 0.0
123 H 14.910000000000009 142.4687803668695 0.0
124 H 14.910000000000013 210.62878036686948 0.0
125 H 14.910000000000018 278.78878036686956 0.0
126 H 16.329857999999998 6.148780366869525 0.0
127 H 16.329858 74.30878036686953 0.0
128 H 16.329858000000005 142.4687803668695 0.0
129 H 16.329858000000012 210.62878036686948 0.0
130 H 16.329858000000016 278.78878036686956 0.0
131 H 17.04 4.919024293495619 0.0
132 H 17.040000000000003 73.0790242934956 0.0
133 H 17.040000000000006 141.23902429349562 0.0
134 H 17.040000000000013 209.3990242934956 0.0
135 H 17.040000000000017 277.5590242934956 0.0
136 H 8.52 7.37853644024343 0.0
137 H 8.520000000000005 75.53853644024343 0.0
138 H 8.520000000000008 143.69853644024343 0.0
139 H 8.520000000000012 211.85853644024343 0.0
140 H 8.520000000000017 280.01853644024345 0.0
141 H 9.939858 7.37853644024343 0.0
142 H 9.939858000000005 75.53853644024343 0.0
143 H 9.939858000000008 143.69853644024343 0.0
144 H 9.939858000000012 211.85853644024343 0.0
145 H 9.939858000000017 280.01853644024345 0.0
146 H 10.649999999999999 8.608292513617334 0.0
147 H 10.650000000000004 76.76829251361733 0.0
148 H 10.650000000000007 144.92829251361732 0.0
149 H 10.650000000000011 213.08829251361732 0.0
150 H 10.650000000000016 281.24829251361734 0.0
151 H 12.069858 8.608292513617334 0.0
152 H 12.069858000000005 76.76829251361733 0.0
153 H 12.069858000000009 144.92829251361732 0.0
154 H 12.069858000000012 213.08829251361732 0.0
155 H 12.069858000000018 281.24829251361734 0.0
156 H 12.78 7.37853644024343 0.0
157 H 12.780000000000005 75.53853644024343 0.0
158 H 12.780000000000008 143.69853644024343 0.0
159 H 12.780000000000012 211.85853644024343 0.0
160 H 12.780000000000017 280.01853644024345 0.0
161 H 14.199857999999999 7.37853644024343 0.0
162 H 14.199858000000004 75.53853644024343 0.0
163 H 14.199858000000008 143.69853644024343 0.0
164 H 14.199858000000011 211.85853644024343 0.0
165 H 14.199858000000017 280.01853644024345 0.0
166 H 14.91 8.608292513617334 0.0
167 H 14.910000000000005 76.76829251361733 0.0
168 H 14.910000000000009 144.92829251361732 0.0
169 H 14.910000000000013 213.08829251361732 0.0
170 H 14.910000000000018 281.24829251361734 0.0
171 H 16.329857999999998 8.608292513617334 0.0
172 H 16.329858 76.76829251361733 0.0
173 H 16.329858000000005 144.92829251361732 0.0
174 H 16.329858000000012 213.08829251361732 0.0
175 H 16.329858000000016 281.24829251361734 0.0
176 H 17.04 7.37853644024343 0.0
177 H 17.040000000000003 75.53853644024343 0.0
178 H 17.040000000000006 143.69853644024343 0.0
179 H 17.040000000000013 211.85853644024343 0.0
180 H 17.040000000000017 280.01853644024345 0.0
181 H 8.52 9.838048586991238 0.0
182 H 8.520000000000005 77.99804858699123 0.0
183 H 8.520000000000008 146.1580485869912 0.0
184 H 8.520000000000012 214.3180485869912 0.0
185 H 8.520000000000017 282.47804858699124 0.0
186 H 9.939858 9.838048586991238 0.0
187 H 9.939858000000005 77.99804858699123 0.0
188 H 9.939858000000008 146.1580485869912 0.0
189 H 9.939858000000012 214.3180485869912 0.0
190 H 9.939858000000017 282.47804858699124 0.0
191 H 10.649999999999999 11.067804660365145 0.0
192 H 10.650000000000004 79.22780466036514 0.0
193 H 10.650000000000007 147.38780466036513 0.0
194 H 10.650000000000011 215.5478046603651 0.0
195 H 10.650000000000016 283.7078046603651 0.0
196 H 12.069858 11.067804660365145 0.0
197 H 12.069858000000005 79.22780466036514 0.0
198 H 12.069858000000009 147.38780466036513 0.0
199 H 12.069858000000012 215.5478046603651 0.0
200 H 12.069858000000018 283.7078046603651 0.0
201 H 12.78 9.838048586991238 0.0
202 H 12.780000000000005 77.99804858699123 0.0
203 H 12.780000000000008 146.1580485869912 0.0
204 H 12.780000000000012 214.3180485869912 0.0
205 H 12.780000000000017 282.47804858699124 0.0
206 H 14.199857999999999 9.838048586991238 0.0
207 H 14.199858000000004 77.99804858699123 0.0
208 H 14.199858000000008 146.1580485869912 0.0
209 H 14.199858000000011 214.3180485869912 0.0
210 H 14.199858000000017 282.47804858699124 0.0
211 H 14.91 11.067804660365145 0.0
212 H 14.910000000000005 79.22780466036514 0.0
213 H 14.910000000000009 147.38780466036513 0.0
214 H 14.910000000000013 215.5478046603651 0.0
215 H 14.910000000000018 283.7078046603651 0.0
216 H 16.329857999999998 11.067804660365145 0.0
217 H 16.329858 79.22780466036514 0.0
218 H 16.32985800000001 147.38780466036513 0.0
219 H 16.329858000000012 215.5478046603651 0.0
220 H 16.329858000000016 283.7078046603651 0.0
221 H 17.04 9.838048586991238 0.0
222 H 17.040000000000003 77.99804858699123 0.0
223 H 17.04000000000001 146.1580485869912 0.0
224 H 17.040000000000013 214.3180485869912 0.0
225 H 17.040000000000017 282.47804858699124 0.0
226 H 8.52 12.29756073373905 0.0
227 H 8.520000000000005 80.45756073373904 0.0
228 H 8.520000000000008 148.61756073373905 0.0
229 H 8.520000000000012 216.77756073373905 0.0
230 H 8.520000000000017 284.937560733739 0.0
231 H 9.939858 12.29756073373905 0.0
232 H 9.939858000000005 80.45756073373904 0.0
233 H 9.939858000000008 148.61756073373905 0.0
234 H 9.939858000000012 216.77756073373905 0.0
235 H 9.939858000000017 284.937560733739 0.0
236 H 10.649999999999999 13.527316807112953 0.0
237 H 10.650000000000004 81.68731680711295 0.0
238 H 10.650000000000007 149.84731680711295 0.0
239 H 10.650000000000013 218.00731680711294 0.0
240 H 10.650000000000016 286.16731680711297 0.0
241 H 12.069858 13.527316807112953 0.0
242 H 12.069858000000005 81.68731680711295 0.0
243 H 12.069858000000009 149.84731680711295 0.0
244 H 12.069858000000014 218.00731680711294 0.0
245 H 12.069858000000018 286.16731680711297 0.0
246 H 12.78 12.29756073373905 0.0
247 H 12.780000000000005 80.45756073373904 0.0
248 H 12.780000000000008 148.61756073373905 0.0
249 H 12.780000000000012 216.77756073373905 0.0
250 H 12.780000000000017 284.937560733739 0.0
251 H 14.199857999999999 12.29756073373905 0.0
252 H 14.199858000000004 80.45756073373904 0.0
253 H 14.199858000000008 148.61756073373905 0.0
254 H 14.199858000000011 216.77756073373905 0.0
255 H 14.199858000000017 284.937560733739 0.0
256 H 14.91 13.527316807112953 0.0
257 H 14.910000000000005 81.68731680711295 0.0
258 H 14.910000000000009 149.84731680711295 0.0
259 H 14.910000000000014 218.00731680711294 0.0
260 H 14.910000000000018 286.16731680711297 0.0
261 H 16.329857999999998 13.527316807112953 0.0
262 H 16.329858 81.68731680711295 0.0
263 H 16.32985800000001 149.84731680711295 0.0
264 H 16.329858000000012 218.00731680711294 0.0
265 H 16.329858000000016 286.16731680711297 0.0
266 H 17.04 12.29756073373905 0.0
267 H 17.040000000000003 80.45756073373904 0.0
268 H 17.04000000000001 148.61756073373905 0.0
269 H 17.040000000000013 216.77756073373905 0.0
270 H 17.040000000000017 284.937560733739 0.0
271 H 8.520000000000001 14.75707288048686 0.0
272 H 8.520000000000005 82.91707288048686 0.0
273 H 8.520000000000008 151.07707288048687 0.0
274 H 8.520000000000014 219.23707288048686 0.0
275 H 8.520000000000017 287.39707288048686 0.0
276 H 9.939858000000001 14.75707288048686 0.0
277 H 9.939858000000005 82.91707288048686 0.0
278 H 9.939858000000008 151.07707288048687 0.0
279 H 9.939858000000013 219.23707288048686 0.0
280 H 9.939858000000017 287.39707288048686 0.0
281 H 10.65 15.986828953860764 0.0
282 H 10.650000000000004 84.14682895386076 0.0
283 H 10.650000000000007 152.30682895386076 0.0
284 H 10.650000000000013 220.46682895386076 0.0
285 H 10.650000000000016 288.62682895386075 0.0
286 H 12.069858000000002 15.986828953860764 0.0
287 H 12.069858000000005 84.14682895386076 0.0
288 H 12.069858000000009 152.30682895386076 0.0
289 H 12.069858000000014 220.46682895386076 0.0
290 H 12.069858000000018 288.62682895386075 0.0
291 H 12.780000000000001 14.75707288048686 0.0
292 H 12.780000000000005 82.91707288048686 0.0
293 H 12.780000000000008 151.07707288048687 0.0
294 H 12.780000000000014 219.23707288048686 0.0
295 H 12.780000000000017 287.39707288048686 0.0
296 H 14.199858 14.75707288048686 0.0
297 H 14.199858000000004 82.91707288048686 0.0
298 H 14.199858000000008 151.07707288048687 0.0
299 H 14.199858000000013 219.23707288048686 0.0
300 H 14.199858000000017 287.39707288048686 0.0
301 H 14.910000000000002 15.986828953860764 0.0
302 H 14.910000000000005 84.14682895386076 0.0
303 H 14.910000000000009 152.30682895386076 0.0
304 H 14.910000000000014 220.46682895386076 0.0
305 H 14.910000000000018 288.62682895386075 0.0
306 H 16.329857999999998 15.986828953860764 0.0
307 H 16.329858 84.14682895386076 0.0
308 H 16.32985800000001 152.30682895386076 0.0
309 H 16.329858000000012 220.46682895386076 0.0
310 H 16.329858000000016 288.62682895386075 0.0
311 H 17.04 14.75707288048686 0.0
312 H 17.040000000000003 82.91707288048686 0.0
313 H 17.04000000000001 151.07707288048687 0.0
314 H 17.040000000000013 219.23707288048686 0.0
315 H 17.040000000000017 287.39707288048686 0.0
316 H 8.520000000000001 17.216585027234668 0.0
317 H 8.520000000000005 85.37658502723465 0.0
318 H 8.520000000000008 153.53658502723465 0.0
319 H 8.520000000000014 221.69658502723462 0.0
320 H 8.520000000000017 289.85658502723464 0.0
321 H 9.939858000000001 17.216585027234668 0.0
322 H 9.939858000000005 85.37658502723465 0.0
323 H 9.939858000000008 153.53658502723465 0.0
324 H 9.939858000000013 221.69658502723462 0.0
325 H 9.939858000000017 289.85658502723464 0.0
326 H 10.65 18.446341100608574 0.0
327 H 10.650000000000004 86.60634110060857 0.0
328 H 10.650000000000007 154.76634110060854 0.0
329 H 10.650000000000013 222.92634110060857 0.0
330 H 10.650000000000016 291.08634110060854 0.0
331 H 12.069858000000002 18.446341100608574 0.0
332 H 12.069858000000005 86.60634110060857 0.0
333 H 12.069858000000009 154.76634110060854 0.0
334 H 12.069858000000014 222.92634110060857 0.0
335 H 12.069858000000018 291.08634110060854 0.0
336 H 12.780000000000001 17.216585027234668 0.0
337 H 12.780000000000005 85.37658502723465 0.0
338 H 12.780000000000008 153.53658502723465 0.0
339 H 12.780000000000014 221.69658502723462 0.0
340 H 12.780000000000017 289.85658502723464 0.0
341 H 14.199858 17.216585027234668 0.0
342 H 14.199858000000004 85.37658502723465 0.0
343 H 14.199858000000008 153.53658502723465 0.0
344 H 14.199858000000013 221.69658502723462 0.0
345 H 14.199858000000017 289.85658502723464 0.0
346 H 14.910000000000002 18.446341100608574 0.0
347 H 14.910000000000005 86.60634110060857 0.0
348 H 14.910000000000009 154.76634110060854 0.0
349 H 14.910000000000014 222.92634110060857 0.0
350 H 14.910000000000018 291.08634110060854 0.0
351 H 16.329857999999998 18.446341100608574 0.0
352 H 16.329858 86.60634110060857 0.0
353 H 16.32985800000001 154.76634110060854 0.0
354 H 16.329858000000012 222.92634110060857 0.0
355 H 16.329858000000016 291.08634110060854 0.0
356 H 17.04 17.216585027234668 0.0
357 H 17.040000000000003 85.37658502723465 0.0
358 H 17.04000000000001 153.53658502723465 0.0
359 H 17.040000000000013 221.69658502723462 0.0
360 H 17.040000000000017 289.85658502723464 0.0
361 H 8.520000000000001 19.676097173982477 0.0
362 H 8.520000000000005 87.83609717398247 0.0
363 H 8.520000000000008 155.99609717398246 0.0
364 H 8.520000000000014 224.1560971739825 0.0
365 H 8.520000000000017 292.3160971739824 0.0
366 H 9.939858000000001 19.676097173982477 0.0
367 H 9.939858000000005 87.83609717398247 0.0
368 H 9.939858000000008 155.99609717398246 0.0
369 H 9.939858000000013 224.1560971739825 0.0
370 H 9.939858000000017 292.3160971739824 0.0
371 H 10.65 20.905853247356383 0.0
372 H 10.650000000000004 89.06585324735637 0.0
373 H 10.650000000000007 157.22585324735638 0.0
374 H 10.650000000000013 225.38585324735638 0.0
375 H 10.650000000000016 293.5458532473564 0.0
376 H 12.069858000000002 20.905853247356383 0.0
377 H 12.069858000000005 89.06585324735637 0.0
378 H 12.069858000000009 157.22585324735638 0.0
379 H 12.069858000000014 225.38585324735638 0.0
380 H 12.069858000000018 293.5458532473564 0.0
381 H 12.780000000000001 19.676097173982477 0.0
382 H 12.780000000000005 87.83609717398247 0.0
383 H 12.780000000000008 155.99609717398246 0.0
384 H 12.780000000000014 224.1560971739825 0.0
385 H 12.780000000000017 292.3160971739824 0.0
386 H 14.199858 19.676097173982477 0.0
387 H 14.199858000000004 87.83609717398247 0.0
388 H 14.199858000000008 155.99609717398246 0.0
389 H 14.199858000000013 224.1560971739825 0.0
390 H 14.199858000000017 292.3160971739824 0.0
391 H 14.910000000000002 20.905853247356383 0.0
392 H 14.910000000000005 89.06585324735637 0.0
393 H 14.910000000000009 157.22585324735638 0.0
394 H 14.910000000000014 225.38585324735638 0.0
395 H 14.910000000000018 293.5458532473564 0.0
396 H 16.329857999999998 20.905853247356383 0.0
397 H 16.329858000000005 89.06585324735637 0.0
398 H 16.32985800000001 157.22585324735638 0.0
399 H 16.329858000000012 225.38585324735638 0.0
400 H 16.329858000000016 293.5458532473564 0.0
401 H 17.04 19.676097173982477 0.0
402 H 17.040000000000006 87.83609717398247 0.0
403 H 17.04000000000001 155.99609717398246 0.0
404 H 17.040000000000013 224.1560971739825 0.0
405 H 17.040000000000017 292.3160971739824 0.0
406 H 8.520000000000001 22.13560932073029 0.0
407 H 8.520000000000005 90.29560932073028 0.0
408 H 8.520000000000008 158.45560932073028 0.0
409 H 8.520000000000014 226.61560932073024 0.0
410 H 8.520000000000017 294.77560932073027 0.0
411 H 9.939858000000001 22.13560932073029 0.0
412 H 9.939858000000005 90.29560932073028 0.0
413 H 9.939858000000008 158.45560932073028 0.0
414 H 9.939858000000013 226.61560932073024 0.0
415 H 9.939858000000017 294.77560932073027 0.0
416 H 10.65 23.36536539410419 0.0
417 H 10.650000000000004 91.52536539410418 0.0
418 H 10.65000000000001 159.6853653941042 0.0
419 H 10.650000000000013 227.8453653941042 0.0
420 H 10.650000000000016 296.0053653941042 0.0
421 H 12.069858000000002 23.36536539410419 0.0
422 H 12.069858000000005 91.52536539410418 0.0
423 H 12.06985800000001 159.6853653941042 0.0
424 H 12.069858000000014 227.8453653941042 0.0
425 H 12.069858000000018 296.0053653941042 0.0
426 H 12.780000000000001 22.13560932073029 0.0
427 H 12.780000000000005 90.29560932073028 0.0
428 H 12.780000000000008 158.45560932073028 0.0
429 H 12.780000000000014 226.61560932073024 0.0
430 H 12.780000000000017 294.77560932073027 0.0
431 H 14.199858 22.13560932073029 0.0
432 H 14.199858000000004 90.29560932073028 0.0
433 H 14.199858000000008 158.45560932073028 0.0
434 H 14.199858000000013 226.61560932073024 0.0
435 H 14.199858000000017 294.77560932073027 0.0
436 H 14.910000000000002 23.36536539410419 0.0
437 H 14.910000000000005 91.52536539410418 0.0
438 H 14.91000000000001 159.6853653941042 0.0
439 H 14.910000000000014 227.8453653941042 0.0
440 H 14.910000000000018 296.0053653941042 0.0
441 H 16.329857999999998 23.36536539410419 0.0
442 H 16.329858000000005 91.52536539410418 0.0
443 H 16.32985800000001 159.6853653941042 0.0
444 H 16.329858000000012 227.8453653941042 0.0
445 H 16.329858000000016 296.0053653941042 0.0
446 H 17.04 22.13560932073029 0.0
447 H 17.040000000000006 90.29560932073028 0.0
448 H 17.04000000000001 158.45560932073028 0.0
449 H 17.040000000000013 226.61560932073024 0.0
450 H 17.040000000000017 294.77560932073027 0.0
451 H 8.520000000000001 24.5951214674781 0.0
452 H 8.520000000000005 92.7551214674781 0.0
453 H 8.52000000000001 160.9151214674781 0.0
454 H 8.520000000000014 229.07512146747808 0.0
455 H 8.520000000000017 297.2351214674781 0.0
456 H 9.939858000000001 24.5951214674781 0.0
457 H 9.939858000000005 92.7551214674781 0.0
458 H 9.93985800000001 160.9151214674781 0.0
459 H 9.939858000000013 229.07512146747808 0.0
460 H 9.939858000000017 297.2351214674781 0.0
461 H 10.65 25.824877540852 0.0
462 H 10.650000000000004 93.984877540852 0.0
463 H 10.65000000000001 162.144877540852 0.0
464 H 10.650000000000013 230.30487754085198 0.0
465 H 10.650000000000016 298.464877540852 0.0
466 H 12.069858000000002 25.824877540852 0.0
467 H 12.069858000000005 93.984877540852 0.0
468 H 12.06985800000001 162.144877540852 0.0
469 H 12.069858000000014 230.30487754085198 0.0
470 H 12.069858000000018 298.464877540852 0.0
471 H 12.780000000000001 24.5951214674781 0.0
472 H 12.780000000000005 92.7551214674781 0.0
473 H 12.78000000000001 160.9151214674781 0.0
474 H 12.780000000000014 229.07512146747808 0.0
475 H 12.780000000000017 297.2351214674781 0.0
476 H 14.199858 24.5951214674781 0.0
477 H 14.199858000000004 92.7551214674781 0.0
478 H 14.19985800000001 160.9151214674781 0.0
479 H 14.199858000000013 229.07512146747808 0.0
480 H 14.199858000000017 297.2351214674781 0.0
481 H 14.910000000000002 25.824877540852 0.0
482 H 14.910000000000005 93.984877540852 0.0
483 H 14.91000000000001 162.144877540852 0.0
484 H 14.910000000000014 230.30487754085198 0.0
485 H 14.910000000000018 298.464877540852 0.0
486 H 16.329857999999998 25.824877540852 0.0
487 H 16.329858000000005 93.984877540852 0.0
488 H 16.32985800000001 162.144877540852 0.0
489 H 16.329858000000012 230.30487754085198 0.0
490 H 16.329858000000016 298.464877540852 0.0
491 H 17.04 24.5951214674781 0.0
492 H 17.040000000000006 92.7551214674781 0.0
493 H 17.04000000000001 160.9151214674781 0.0
494 H 17.040000000000013 229.07512146747808 0.0
495 H 17.040000000000017 297.2351214674781 0.0
496 H 8.520000000000001 27.054633614225907 0.0
497 H 8.520000000000005 95.2146336142259 0.0
498 H 8.52000000000001 163.3746336142259 0.0
499 H 8.520000000000014 231.53463361422587 0.0
500 H 8.520000000000017 299.6946336142259 0.0
501 H 9.939858000000001 27.054633614225907 0.0
502 H 9.939858000000005 95.2146336142259 0.0
503 H 9.93985800000001 163.3746336142259 0.0
504 H 9.939858000000013 231.53463361422587 0.0
505 H 9.939858000000017 299.6946336142259 0.0
506 H 10.65 28.284389687599816 0.0
507 H 10.650000000000004 96.44438968759981 0.0
508 H 10.65000000000001 164.60438968759982 0.0
509 H 10.650000000000013 232.76438968759976 0.0
510 H 10.650000000000016 300.9243896875998 0.0
511 H 12.069858000000002 28.284389687599816 0.0
512 H 12.069858000000005 96.44438968759981 0.0
513 H 12.06985800000001 164.60438968759982 0.0
514 H 12.069858000000014 232.76438968759976 0.0
515 H 12.069858000000018 300.9243896875998 0.0
516 H 12.780000000000001 27.054633614225907 0.0
517 H 12.780000000000005 95.2146336142259 0.0
518 H 12.78000000000001 163.3746336142259 0.0
519 H 12.780000000000014 231.53463361422587 0.0
520 H 12.780000000000017 299.6946336142259 0.0
521 H 14.199858 27.054633614225907 0.0
522 H 14.199858000000004 95.2146336142259 0.0
523 H 14.19985800000001 163.3746336142259 0.0
524 H 14.199858000000013 231.53463361422587 0.0
525 H 14.199858000000017 299.6946336142259 0.0
526 H 14.910000000000002 28.284389687599816 0.0
527 H 14.910000000000005 96.44438968759981 0.0
528 H 14.91000000000001 164.60438968759982 0.0
529 H 14.910000000000014 232.76438968759976 0.0
530 H 14.910000000000018 300.9243896875998 0.0
531 H 16.329857999999998 28.284389687599816 0.0
532 H 16.329858000000005 96.44438968759981 0.0
533 H 16.32985800000001 164.60438968759982 0.0
534 H 16.329858000000012 232.76438968759976 0.0
535 H 16.329858000000016 300.9243896875998 0.0
536 H 17.04 27.054633614225907 0.0
537 H 17.040000000000006 95.2146336142259 0.0
538 H 17.04000000000001 163.3746336142259 0.0
539 H 17.040000000000013 231.53463361422587 0.0
540 H 17.040000000000017 299.6946336142259 0.0
541 H 8.520000000000001 29.51414576097372 0.0
542 H 8.520000000000005 97.67414576097369 0.0
543 H 8.52000000000001 165.8341457609737 0.0
544 H 8.520000000000014 233.9941457609737 0.0
545 H 8.520000000000017 302.15414576097373 0.0
546 H 9.939858000000001 29.51414576097372 0.0
547 H 9.939858000000005 97.67414576097369 0.0
548 H 9.93985800000001 165.8341457609737 0.0
549 H 9.939858000000013 233.9941457609737 0.0
550 H 9.939858000000017 302.15414576097373 0.0
551 H 10.65 30.743901834347618 0.0
552 H 10.650000000000004 98.90390183434761 0.0
553 H 10.65000000000001 167.0639018343476 0.0
554 H 10.650000000000013 235.2239018343476 0.0
555 H 10.650000000000016 303.3839018343476 0.0
556 H 12.069858000000002 30.743901834347618 0.0
557 H 12.069858000000005 98.90390183434761 0.0
558 H 12.06985800000001 167.0639018343476 0.0
559 H 12.069858000000014 235.2239018343476 0.0
560 H 12.069858000000018 303.3839018343476 0.0
561 H 12.780000000000001 29.51414576097372 0.0
562 H 12.780000000000005 97.67414576097369 0.0
563 H 12.78000000000001 165.8341457609737 0.0
564 H 12.780000000000014 233.9941457609737 0.0
565 H 12.780000000000017 302.15414576097373 0.0
566 H 14.199858 29.51414576097372 0.0
567 H 14.199858000000004 97.67414576097369 0.0
568 H 14.19985800000001 165.8341457609737 0.0
569 H 14.199858000000013 233.9941457609737 0.0
570 H 14.199858000000017 302.15414576097373 0.0
571 H 14.910000000000002 30.743901834347618 0.0
572 H 14.910000000000005 98.90390183434761 0.0
573 H 14.91000000000001 167.0639018343476 0.0
574 H 14.910000000000014 235.2239018343476 0.0
575 H 14.910000000000018 303.3839018343476 0.0
576 H 16.329858 30.743901834347618 0.0
577 H 16.329858000000005 98.90390183434761 0.0
578 H 16.32985800000001 167.0639018343476 0.0
579 H 16.329858000000012 235.2239018343476 0.0
580 H 16.329858000000016 303.3839018343476 0.0
581 H 17.040000000000003 29.51414576097372 0.0
582 H 17.040000000000006 97.67414576097369 0.0
583 H 17.04000000000001 165.8341457609737 0.0
584 H 17.040000000000013 233.9941457609737 0.0
585 H 17.040000000000017 302.15414576097373 0.0
586 H 8.520000000000001 31.973657907721527 0.0
587 H 8.520000000000005 100.13365790772151 0.0
588 H 8.52000000000001 168.29365790772152 0.0
589 H 8.520000000000014 236.45365790772152 0.0
590 H 8.52000000000002 304.6136579077215 0.0
591 H 9.939858000000001 31.973657907721527 0.0
592 H 9.939858000000005 100.13365790772151 0.0
593 H 9.93985800000001 168.29365790772152 0.0
594 H 9.939858000000013 236.45365790772152 0.0
595 H 9.939858000000019 304.6136579077215 0.0
596 H 10.65 33.20341398109544 0.0
597 H 10.650000000000004 101.36341398109543 0.0
598 H 10.65000000000001 169.52341398109542 0.0
599 H 10.650000000000013 237.6834139810954 0.0
600 H 10.650000000000018 305.8434139810954 0.0
601 H 12.069858000000002 33.20341398109544 0.0
602 H 12.069858000000005 101.36341398109543 0.0
603 H 12.06985800000001 169.52341398109542 0.0
604 H 12.069858000000014 237.6834139810954 0.0
605 H 12.06985800000002 305.8434139810954 0.0
606 H 12.780000000000001 31.973657907721527 0.0
607 H 12.780000000000005 100.13365790772151 0.0
608 H 12.78000000000001 168.29365790772152 0.0
609 H 12.780000000000014 236.45365790772152 0.0
610 H 12.780000000000019 304.6136579077215 0.0
611 H 14.199858 31.973657907721527 0.0
612 H 14.199858000000004 100.13365790772151 0.0
613 H 14.19985800000001 168.29365790772152 0.0
614 H 14.199858000000013 236.45365790772152 0.0
615 H 14.199858000000019 304.6136579077215 0.0
616 H 14.910000000000002 33.20341398109544 0.0
617 H 14.910000000000005 101.36341398109543 0.0
618 H 14.91000000000001 169.52341398109542 0.0
619 H 14.910000000000014 237.6834139810954 0.0
620 H 14.91000000000002 305.8434139810954 0.0
621 H 16.329858 33.20341398109544 0.0
622 H 16.329858000000005 101.36341398109543 0.0
623 H 16.32985800000001 169.52341398109542 0.0
624 H 16.329858000000012 237.6834139810954 0.0
625 H 16.329858000000016 305.8434139810954 0.0
626 H 17.040000000000003 31.973657907721527 0.0
627 H 17.040000000000006 100.13365790772151 0.0
628 H 17.04000000000001 168.29365790772152 0.0
629 H 17.040000000000013 236.45365790772152 0.0
630 H 17.040000000000017 304.6136579077215 0.0
631 H 8.520000000000001 34.433170054469336 0.0
632 H 8.520000000000007 102.59317005446933 0.0
633 H 8.52000000000001 170.7531700544693 0.0
634 H 8.520000000000014 238.91317005446928 0.0
635 H 8.52000000000002 307.0731700544693 0.0
636 H 9.939858000000001 34.433170054469336 0.0
637 H 9.939858000000006 102.59317005446933 0.0
638 H 9.93985800000001 170.7531700544693 0.0
639 H 9.939858000000013 238.91317005446928 0.0
640 H 9.939858000000019 307.0731700544693 0.0
641 H 10.65 35.662926127843235 0.0
642 H 10.650000000000006 103.82292612784323 0.0
643 H 10.65000000000001 171.9829261278432 0.0
644 H 10.650000000000013 240.14292612784323 0.0
645 H 10.650000000000018 308.3029261278432 0.0
646 H 12.069858000000002 35.662926127843235 0.0
647 H 12.069858000000007 103.82292612784323 0.0
648 H 12.06985800000001 171.9829261278432 0.0
649 H 12.069858000000014 240.14292612784323 0.0
650 H 12.06985800000002 308.3029261278432 0.0
651 H 12.780000000000001 34.433170054469336 0.0
652 H 12.780000000000006 102.59317005446933 0.0
653 H 12.78000000000001 170.7531700544693 0.0
654 H 12.780000000000014 238.91317005446928 0.0
655 H 12.780000000000019 307.0731700544693 0.0
656 H 14.199858 34.433170054469336 0.0
657 H 14.199858000000006 102.59317005446933 0.0