#

3240 atoms
1 atom types

0.0 38.339999999999996 xlo xhi
0.0 221.35609320730288 ylo yhi
0.0 10.0 zlo zhi

1.3554151550904331e-14 6.123233995736766e-16 1.1102230246251565e-15 xy xz yz


Atom Type Labels

1 H


Atoms

1 H -0.0017049520820633672 -0.009843545435346993 -0.0004446927704912276
2 H 12.779999999999998 0.0 0.0
3 H 25.559999999999995 0.0 0.0
4 H 4.518050516968109e-15 73.78536440243428 0.0
5 H 12.780000000000003 73.78536440243428 0.0
6 H 25.56 73.78536440243428 0.0
7 H 9.036101033936219e-15 147.57072880486857 0.0
8 H 12.780000000000006 147.57072880486857 0.0
9 H 25.560000000000006 147.57072880486857 0.0
10 H 1.4198579999999996 0.0 0.0
11 H 14.199857999999997 0.0 0.0
12 H 26.979857999999997 0.0 0.0
13 H 1.419858000000004 73.78536440243428 0.0
14 H 14.199858000000003 73.78536440243428 0.0
15 H 26.979858 73.78536440243428 0.0
16 H 1.4198580000000087 147.57072880486857 0.0
17 H 14.199858000000006 147.57072880486857 0.0
18 H 26.979858000000007 147.57072880486857 0.0
19 H 2.13 1.2297560733739048 0.0
20 H 14.909999999999998 1.2297560733739048 0.0
21 H 27.689999999999994 1.2297560733739048 0.0
22 H 2.1300000000000043 75.01512047580819 0.0
23 H 14.910000000000004 75.01512047580819 0.0
24 H 27.689999999999998 75.01512047580819 0.0
25 H 2.130000000000009 148.8004848782425 0.0
26 H 14.910000000000007 148.8004848782425 0.0
27 H 27.690000000000005 148.8004848782425 0.0
28 H 3.5498579999999995 1.2297560733739048 0.0
29 H 16.329857999999998 1.2297560733739048 0.0
30 H 29.109857999999992 1.2297560733739048 0.0
31 H 3.549858000000004 75.01512047580819 0.0
32 H 16.329858 75.01512047580819 0.0
33 H 29.109857999999996 75.01512047580819 0.0
34 H 3.549858000000009 148.8004848782425 0.0
35 H 16.32985800000001 148.8004848782425 0.0
36 H 29.109858000000003 148.8004848782425 0.0
37 H 4.26 0.0 0.0
38 H 17.04 0.0 0.0
39 H 29.819999999999997 0.0 0.0
40 H 4.260000000000004 73.78536440243428 0.0
41 H 17.040000000000003 73.78536440243428 0.0
42 H 29.82 73.78536440243428 0.0
43 H 4.260000000000009 147.57072880486857 0.0
44 H 17.04000000000001 147.57072880486857 0.0
45 H 29.820000000000007 147.57072880486857 0.0
46 H 5.6798579999999985 0.0 0.0
47 H 18.459857999999997 0.0 0.0
48 H 31.239857999999998 0.0 0.0
49 H 5.679858000000003 73.78536440243428 0.0
50 H 18.459858 73.78536440243428 0.0
51 H 31.239858 73.78536440243428 0.0
52 H 5.679858000000007 147.57072880486857 0.0
53 H 18.459858000000008 147.57072880486857 0.0
54 H 31.23985800000001 147.57072880486857 0.0
55 H 6.389999999999999 1.2297560733739048 0.0
56 H 19.169999999999998 1.2297560733739048 0.0
57 H 31.949999999999996 1.2297560733739048 0.0
58 H 6.390000000000003 75.01512047580819 0.0
59 H 19.17 75.01512047580819 0.0
60 H 31.95 75.01512047580819 0.0
61 H 6.390000000000008 148.8004848782425 0.0
62 H 19.17000000000001 148.8004848782425 0.0
63 H 31.950000000000006 148.8004848782425 0.0
64 H 7.809857999999999 1.2297560733739048 0.0
65 H 20.589857999999996 1.2297560733739048 0.0
66 H 33.369857999999994 1.2297560733739048 0.0
67 H 7.809858000000004 75.01512047580819 0.0
68 H 20.589858 75.01512047580819 0.0
69 H 33.369858 75.01512047580819 0.0
70 H 7.809858000000008 148.8004848782425 0.0
71 H 20.589858000000007 148.8004848782425 0.0
72 H 33.369858 148.8004848782425 0.0
73 H 8.52 0.0 0.0
74 H 21.299999999999994 0.0 0.0
75 H 34.08 0.0 0.0
76 H 8.520000000000005 73.78536440243428 0.0
77 H 21.299999999999997 73.78536440243428 0.0
78 H 34.080000000000005 73.78536440243428 0.0
79 H 8.520000000000008 147.57072880486857 0.0
80 H 21.300000000000004 147.57072880486857 0.0
81 H 34.080000000000005 147.57072880486857 0.0
82 H 9.939857999999997 0.0 0.0
83 H 22.719857999999995 0.0 0.0
84 H 35.49985799999999 0.0 0.0
85 H 9.939858000000003 73.78536440243428 0.0
86 H 22.719858 73.78536440243428 0.0
87 H 35.499857999999996 73.78536440243428 0.0
88 H 9.939858000000006 147.57072880486857 0.0
89 H 22.719858000000006 147.57072880486857 0.0
90 H 35.499857999999996 147.57072880486857 0.0
91 H 10.649999999999997 1.2297560733739048 0.0
92 H 23.429999999999996 1.2297560733739048 0.0
93 H 36.209999999999994 1.2297560733739048 0.0
94 H 10.650000000000002 75.01512047580819 0.0
95 H 23.43 75.01512047580819 0.0
96 H 36.21 75.01512047580819 0.0
97 H 10.650000000000006 148.8004848782425 0.0
98 H 23.430000000000007 148.8004848782425 0.0
99 H 36.21 148.8004848782425 0.0
100 H 12.069857999999998 1.2297560733739048 0.0
101 H 24.849857999999998 1.2297560733739048 0.0
102 H 37.629858 1.2297560733739048 0.0
103 H 12.069858000000004 75.01512047580819 0.0
104 H 24.849858 75.01512047580819 0.0
105 H 37.629858000000006 75.01512047580819 0.0
106 H 12.069858000000007 148.8004848782425 0.0
107 H 24.849858000000008 148.8004848782425 0.0
108 H 37.629858000000006 148.8004848782425 0.0
109 H 1.50601683898937e-16 2.4595121467478096 0.0
110 H 12.779999999999998 2.4595121467478096 0.0
111 H 25.559999999999995 2.4595121467478096 0.0
112 H 4.668652200867047e-15 76.2448765491821 0.0
113 H 12.780000000000003 76.2448765491821 0.0
114 H 25.56 76.2448765491821 0.0
115 H 9.186702717835156e-15 150.03024095161638 0.0
116 H 12.780000000000006 150.03024095161638 0.0
117 H 25.560000000000006 150.03024095161638 0.0
118 H 1.4198579999999998 2.4595121467478096 0.0
119 H 14.199857999999997 2.4595121467478096 0.0
120 H 26.979857999999997 2.4595121467478096 0.0
121 H 1.4198580000000043 76.2448765491821 0.0
122 H 14.199858000000003 76.2448765491821 0.0
123 H 26.979858 76.2448765491821 0.0
124 H 1.4198580000000087 150.03024095161638 0.0
125 H 14.199858000000006 150.03024095161638 0.0
126 H 26.979858000000007 150.03024095161638 0.0
127 H 2.1300000000000003 3.689268220121714 0.0
128 H 14.909999999999998 3.689268220121714 0.0
129 H 27.689999999999994 3.689268220121714 0.0
130 H 2.130000000000005 77.474632622556 0.0
131 H 14.910000000000004 77.474632622556 0.0
132 H 27.689999999999998 77.474632622556 0.0
133 H 2.130000000000009 151.25999702499024 0.0
134 H 14.910000000000007 151.25999702499024 0.0
135 H 27.690000000000005 151.25999702499024 0.0
136 H 3.549858 3.689268220121714 0.0
137 H 16.329857999999998 3.689268220121714 0.0
138 H 29.109857999999992 3.689268220121714 0.0
139 H 3.5498580000000044 77.474632622556 0.0
140 H 16.329858 77.474632622556 0.0
141 H 29.109857999999996 77.474632622556 0.0
142 H 3.549858000000009 151.25999702499024 0.0
143 H 16.32985800000001 151.25999702499024 0.0
144 H 29.109858000000003 151.25999702499024 0.0
145 H 4.26 2.4595121467478096 0.0
146 H 17.04 2.4595121467478096 0.0
147 H 29.819999999999997 2.4595121467478096 0.0
148 H 4.260000000000004 76.2448765491821 0.0
149 H 17.040000000000003 76.2448765491821 0.0
150 H 29.82 76.2448765491821 0.0
151 H 4.260000000000009 150.03024095161638 0.0
152 H 17.04000000000001 150.03024095161638 0.0
153 H 29.820000000000007 150.03024095161638 0.0
154 H 5.6798579999999985 2.4595121467478096 0.0
155 H 18.459857999999997 2.4595121467478096 0.0
156 H 31.239857999999998 2.4595121467478096 0.0
157 H 5.679858000000003 76.2448765491821 0.0
158 H 18.459858 76.2448765491821 0.0
159 H 31.239858 76.2448765491821 0.0
160 H 5.679858000000007 150.03024095161638 0.0
161 H 18.459858000000008 150.03024095161638 0.0
162 H 31.23985800000001 150.03024095161638 0.0
163 H 6.389999999999999 3.689268220121714 0.0
164 H 19.169999999999998 3.689268220121714 0.0
165 H 31.949999999999996 3.689268220121714 0.0
166 H 6.390000000000003 77.474632622556 0.0
167 H 19.17 77.474632622556 0.0
168 H 31.95 77.474632622556 0.0
169 H 6.390000000000008 151.25999702499024 0.0
170 H 19.17000000000001 151.25999702499024 0.0
171 H 31.950000000000006 151.25999702499024 0.0
172 H 7.809857999999999 3.689268220121714 0.0
173 H 20.589857999999996 3.689268220121714 0.0
174 H 33.369857999999994 3.689268220121714 0.0
175 H 7.809858000000004 77.474632622556 0.0
176 H 20.589858 77.474632622556 0.0
177 H 33.369858 77.474632622556 0.0
178 H 7.809858000000008 151.25999702499024 0.0
179 H 20.589858000000007 151.25999702499024 0.0
180 H 33.369858 151.25999702499024 0.0
181 H 8.52 2.4595121467478096 0.0
182 H 21.299999999999994 2.4595121467478096 0.0
183 H 34.08 2.4595121467478096 0.0
184 H 8.520000000000005 76.2448765491821 0.0
185 H 21.299999999999997 76.2448765491821 0.0
186 H 34.080000000000005 76.2448765491821 0.0
187 H 8.520000000000008 150.03024095161638 0.0
188 H 21.300000000000004 150.03024095161638 0.0
189 H 34.080000000000005 150.03024095161638 0.0
190 H 9.939857999999997 2.4595121467478096 0.0
191 H 22.719857999999995 2.4595121467478096 0.0
192 H 35.49985799999999 2.4595121467478096 0.0
193 H 9.939858000000003 76.2448765491821 0.0
194 H 22.719858 76.2448765491821 0.0
195 H 35.499857999999996 76.2448765491821 0.0
196 H 9.939858000000006 150.03024095161638 0.0
197 H 22.719858000000006 150.03024095161638 0.0
198 H 35.499857999999996 150.03024095161638 0.0
199 H 10.649999999999997 3.689268220121714 0.0
200 H 23.429999999999996 3.689268220121714 0.0
201 H 36.209999999999994 3.689268220121714 0.0
202 H 10.650000000000002 77.474632622556 0.0
203 H 23.43 77.474632622556 0.0
204 H 36.21 77.474632622556 0.0
205 H 10.650000000000006 151.25999702499024 0.0
206 H 23.430000000000007 151.25999702499024 0.0
207 H 36.21 151.25999702499024 0.0
208 H 12.069857999999998 3.689268220121714 0.0
209 H 24.849857999999998 3.689268220121714 0.0
210 H 37.629858 3.689268220121714 0.0
211 H 12.069858000000004 77.474632622556 0.0
212 H 24.849858 77.474632622556 0.0
213 H 37.629858000000006 77.474632622556 0.0
214 H 12.069858000000007 151.25999702499024 0.0
215 H 24.849858000000008 151.25999702499024 0.0
216 H 37.629858000000006 151.25999702499024 0.0
217 H 3.01203367797874e-16 4.919024293495619 0.0
218 H 12.779999999999998 4.919024293495619 0.0
219 H 25.559999999999995 4.919024293495619 0.0
220 H 4.819253884765984e-15 78.70438869592991 0.0
221 H 12.780000000000003 78.70438869592991 0.0
222 H 25.56 78.70438869592991 0.0
223 H 9.337304401734093e-15 152.4897530983642 0.0
224 H 12.780000000000006 152.4897530983642 0.0
225 H 25.560000000000006 152.4897530983642 0.0
226 H 1.4198579999999998 4.919024293495619 0.0
227 H 14.199857999999997 4.919024293495619 0.0
228 H 26.979857999999997 4.919024293495619 0.0
229 H 1.4198580000000045 78.70438869592991 0.0
230 H 14.199858000000003 78.70438869592991 0.0
231 H 26.979858 78.70438869592991 0.0
232 H 1.419858000000009 152.4897530983642 0.0
233 H 14.199858000000006 152.4897530983642 0.0
234 H 26.979858000000007 152.4897530983642 0.0
235 H 2.1300000000000003 6.1487803668695244 0.0
236 H 14.909999999999998 6.1487803668695244 0.0
237 H 27.689999999999994 6.1487803668695244 0.0
238 H 2.130000000000005 79.93414476930378 0.0
239 H 14.910000000000004 79.93414476930378 0.0
240 H 27.689999999999998 79.93414476930378 0.0
241 H 2.130000000000009 153.7195091717381 0.0
242 H 14.910000000000007 153.7195091717381 0.0
243 H 27.690000000000005 153.7195091717381 0.0
244 H 3.549858 6.1487803668695244 0.0
245 H 16.329857999999998 6.1487803668695244 0.0
246 H 29.109857999999992 6.1487803668695244 0.0
247 H 3.5498580000000044 79.93414476930378 0.0
248 H 16.329858 79.93414476930378 0.0
249 H 29.109857999999996 79.93414476930378 0.0
250 H 3.549858000000009 153.7195091717381 0.0
251 H 16.32985800000001 153.7195091717381 0.0
252 H 29.109858000000003 153.7195091717381 0.0
253 H 4.26 4.919024293495619 0.0
254 H 17.04 4.919024293495619 0.0
255 H 29.819999999999997 4.919024293495619 0.0
256 H 4.260000000000004 78.70438869592991 0.0
257 H 17.040000000000003 78.70438869592991 0.0
258 H 29.82 78.70438869592991 0.0
259 H 4.26000000000001 152.4897530983642 0.0
260 H 17.04000000000001 152.4897530983642 0.0
261 H 29.820000000000007 152.4897530983642 0.0
262 H 5.6798579999999985 4.919024293495619 0.0
263 H 18.459857999999997 4.919024293495619 0.0
264 H 31.239857999999998 4.919024293495619 0.0
265 H 5.679858000000003 78.70438869592991 0.0
266 H 18.459858 78.70438869592991 0.0
267 H 31.239858 78.70438869592991 0.0
268 H 5.679858000000008 152.4897530983642 0.0
269 H 18.459858000000008 152.4897530983642 0.0
270 H 31.23985800000001 152.4897530983642 0.0
271 H 6.389999999999999 6.1487803668695244 0.0
272 H 19.169999999999998 6.1487803668695244 0.0
273 H 31.949999999999996 6.1487803668695244 0.0
274 H 6.390000000000004 79.93414476930378 0.0
275 H 19.17 79.93414476930378 0.0
276 H 31.95 79.93414476930378 0.0
277 H 6.390000000000009 153.7195091717381 0.0
278 H 19.17000000000001 153.7195091717381 0.0
279 H 31.950000000000006 153.7195091717381 0.0
280 H 7.809857999999999 6.1487803668695244 0.0
281 H 20.589857999999996 6.1487803668695244 0.0
282 H 33.369857999999994 6.1487803668695244 0.0
283 H 7.809858000000005 79.93414476930378 0.0
284 H 20.589858 79.93414476930378 0.0
285 H 33.369858 79.93414476930378 0.0
286 H 7.809858000000009 153.7195091717381 0.0
287 H 20.589858000000007 153.7195091717381 0.0
288 H 33.369858 153.7195091717381 0.0
289 H 8.52 4.919024293495619 0.0
290 H 21.299999999999994 4.919024293495619 0.0
291 H 34.08 4.919024293495619 0.0
292 H 8.520000000000005 78.70438869592991 0.0
293 H 21.299999999999997 78.70438869592991 0.0
294 H 34.080000000000005 78.70438869592991 0.0
295 H 8.520000000000008 152.4897530983642 0.0
296 H 21.300000000000004 152.4897530983642 0.0
297 H 34.080000000000005 152.4897530983642 0.0
298 H 9.939857999999997 4.919024293495619 0.0
299 H 22.719857999999995 4.919024293495619 0.0
300 H 35.49985799999999 4.919024293495619 0.0
301 H 9.939858000000003 78.70438869592991 0.0
302 H 22.719858 78.70438869592991 0.0
303 H 35.499857999999996 78.70438869592991 0.0
304 H 9.939858000000006 152.4897530983642 0.0
305 H 22.719858000000006 152.4897530983642 0.0
306 H 35.499857999999996 152.4897530983642 0.0
307 H 10.649999999999997 6.1487803668695244 0.0
308 H 23.429999999999996 6.1487803668695244 0.0
309 H 36.209999999999994 6.1487803668695244 0.0
310 H 10.650000000000002 79.93414476930378 0.0
311 H 23.43 79.93414476930378 0.0
312 H 36.21 79.93414476930378 0.0
313 H 10.650000000000006 153.7195091717381 0.0
314 H 23.430000000000007 153.7195091717381 0.0
315 H 36.21 153.7195091717381 0.0
316 H 12.069857999999998 6.1487803668695244 0.0
317 H 24.849857999999998 6.1487803668695244 0.0
318 H 37.629858 6.1487803668695244 0.0
319 H 12.069858000000004 79.93414476930378 0.0
320 H 24.849858 79.93414476930378 0.0
321 H 37.629858000000006 79.93414476930378 0.0
322 H 12.069858000000007 153.7195091717381 0.0
323 H 24.849858000000008 153.7195091717381 0.0
324 H 37.629858000000006 153.7195091717381 0.0
325 H 4.51805051696811e-16 7.378536440243428 0.0
326 H 12.779999999999998 7.378536440243428 0.0
327 H 25.559999999999995 7.378536440243428 0.0
328 H 4.969855568664922e-15 81.16390084267773 0.0
329 H 12.780000000000003 81.16390084267773 0.0
330 H 25.56 81.16390084267773 0.0
331 H 9.487906085633031e-15 154.949265245112 0.0
332 H 12.780000000000006 154.949265245112 0.0
333 H 25.560000000000006 154.949265245112 0.0
334 H 1.419858 7.378536440243428 0.0
335 H 14.199857999999997 7.378536440243428 0.0
336 H 26.979857999999997 7.378536440243428 0.0
337 H 1.4198580000000045 81.16390084267773 0.0
338 H 14.199858000000003 81.16390084267773 0.0
339 H 26.979858 81.16390084267773 0.0
340 H 1.4198580000000092 154.949265245112 0.0
341 H 14.199858000000006 154.949265245112 0.0
342 H 26.979858000000007 154.949265245112 0.0
343 H 2.1300000000000003 8.608292513617334 0.0
344 H 14.909999999999998 8.608292513617334 0.0
345 H 27.689999999999994 8.608292513617334 0.0
346 H 2.130000000000005 82.39365691605161 0.0
347 H 14.910000000000004 82.39365691605161 0.0
348 H 27.689999999999998 82.39365691605161 0.0
349 H 2.1300000000000097 156.17902131848587 0.0
350 H 14.910000000000007 156.17902131848587 0.0
351 H 27.690000000000005 156.17902131848587 0.0
352 H 3.549858 8.608292513617334 0.0
353 H 16.329857999999998 8.608292513617334 0.0
354 H 29.109857999999992 8.608292513617334 0.0
355 H 3.5498580000000044 82.39365691605161 0.0
356 H 16.329858 82.39365691605161 0.0
357 H 29.109857999999996 82.39365691605161 0.0
358 H 3.5498580000000093 156.17902131848587 0.0
359 H 16.32985800000001 156.17902131848587 0.0
360 H 29.109858000000003 156.17902131848587 0.0
361 H 4.260000000000001 7.378536440243428 0.0
362 H 17.04 7.378536440243428 0.0
363 H 29.819999999999997 7.378536440243428 0.0
364 H 4.260000000000005 81.16390084267773 0.0
365 H 17.040000000000003 81.16390084267773 0.0
366 H 29.82 81.16390084267773 0.0
367 H 4.26000000000001 154.949265245112 0.0
368 H 17.04000000000001 154.949265245112 0.0
369 H 29.820000000000007 154.949265245112 0.0
370 H 5.679857999999999 7.378536440243428 0.0
371 H 18.459857999999997 7.378536440243428 0.0
372 H 31.239857999999998 7.378536440243428 0.0
373 H 5.679858000000004 81.16390084267773 0.0
374 H 18.459858 81.16390084267773 0.0
375 H 31.239858 81.16390084267773 0.0
376 H 5.679858000000008 154.949265245112 0.0
377 H 18.459858000000008 154.949265245112 0.0
378 H 31.23985800000001 154.949265245112 0.0
379 H 6.39 8.608292513617334 0.0
380 H 19.169999999999998 8.608292513617334 0.0
381 H 31.949999999999996 8.608292513617334 0.0
382 H 6.390000000000004 82.39365691605161 0.0
383 H 19.17 82.39365691605161 0.0
384 H 31.95 82.39365691605161 0.0
385 H 6.390000000000009 156.17902131848587 0.0
386 H 19.17000000000001 156.17902131848587 0.0
387 H 31.950000000000006 156.17902131848587 0.0
388 H 7.809858 8.608292513617334 0.0
389 H 20.589857999999996 8.608292513617334 0.0
390 H 33.369857999999994 8.608292513617334 0.0
391 H 7.809858000000005 82.39365691605161 0.0
392 H 20.589858 82.39365691605161 0.0
393 H 33.369858 82.39365691605161 0.0
394 H 7.809858000000009 156.17902131848587 0.0
395 H 20.589858000000007 156.17902131848587 0.0
396 H 33.369858 156.17902131848587 0.0
397 H 8.52 7.378536440243428 0.0
398 H 21.299999999999994 7.378536440243428 0.0
399 H 34.08 7.378536440243428 0.0
400 H 8.520000000000005 81.16390084267773 0.0
401 H 21.299999999999997 81.16390084267773 0.0
402 H 34.080000000000005 81.16390084267773 0.0
403 H 8.520000000000008 154.949265245112 0.0
404 H 21.300000000000004 154.949265245112 0.0
405 H 34.080000000000005 154.949265245112 0.0
406 H 9.939857999999997 7.378536440243428 0.0
407 H 22.719857999999995 7.378536440243428 0.0
408 H 35.49985799999999 7.378536440243428 0.0
409 H 9.939858000000003 81.16390084267773 0.0
410 H 22.719858 81.16390084267773 0.0
411 H 35.499857999999996 81.16390084267773 0.0
412 H 9.939858000000006 154.949265245112 0.0
413 H 22.719858000000006 154.949265245112 0.0
414 H 35.499857999999996 154.949265245112 0.0
415 H 10.649999999999997 8.608292513617334 0.0
416 H 23.429999999999996 8.608292513617334 0.0
417 H 36.209999999999994 8.608292513617334 0.0
418 H 10.650000000000002 82.39365691605161 0.0
419 H 23.43 82.39365691605161 0.0
420 H 36.21 82.39365691605161 0.0
421 H 10.650000000000006 156.17902131848587 0.0
422 H 23.430000000000007 156.17902131848587 0.0
423 H 36.21 156.17902131848587 0.0
424 H 12.069857999999998 8.608292513617334 0.0
425 H 24.849857999999998 8.608292513617334 0.0
426 H 37.629858 8.608292513617334 0.0
427 H 12.069858000000004 82.39365691605161 0.0
428 H 24.849858 82.39365691605161 0.0
429 H 37.629858000000006 82.39365691605161 0.0
430 H 12.069858000000007 156.17902131848587 0.0
431 H 24.849858000000008 156.17902131848587 0.0
432 H 37.629858000000006 156.17902131848587 0.0
433 H 6.02406735595748e-16 9.838048586991238 0.0
434 H 12.779999999999998 9.838048586991238 0.0
435 H 25.559999999999995 9.838048586991238 0.0
436 H 5.120457252563858e-15 83.62341298942553 0.0
437 H 12.780000000000003 83.62341298942553 0.0
438 H 25.56 83.62341298942553 0.0
439 H 9.638507769531968e-15 157.40877739185981 0.0
440 H 12.780000000000006 157.40877739185981 0.0
441 H 25.560000000000006 157.40877739185981 0.0
442 H 1.4198580000000003 9.838048586991238 0.0
443 H 14.199857999999997 9.838048586991238 0.0
444 H 26.979857999999997 9.838048586991238 0.0
445 H 1.4198580000000047 83.62341298942553 0.0
446 H 14.199858000000003 83.62341298942553 0.0
447 H 26.979858 83.62341298942553 0.0
448 H 1.4198580000000092 157.40877739185981 0.0
449 H 14.199858000000006 157.40877739185981 0.0
450 H 26.979858000000007 157.40877739185981 0.0
451 H 2.130000000000001 11.067804660365141 0.0
452 H 14.909999999999998 11.067804660365141 0.0
453 H 27.689999999999994 11.067804660365141 0.0
454 H 2.1300000000000052 84.85316906279942 0.0
455 H 14.910000000000004 84.85316906279942 0.0
456 H 27.689999999999998 84.85316906279942 0.0
457 H 2.1300000000000097 158.6385334652337 0.0
458 H 14.910000000000007 158.6385334652337 0.0
459 H 27.690000000000005 158.6385334652337 0.0
460 H 3.5498580000000004 11.067804660365141 0.0
461 H 16.329857999999998 11.067804660365141 0.0
462 H 29.109857999999992 11.067804660365141 0.0
463 H 3.549858000000005 84.85316906279942 0.0
464 H 16.329858 84.85316906279942 0.0
465 H 29.109857999999996 84.85316906279942 0.0
466 H 3.5498580000000093 158.6385334652337 0.0
467 H 16.32985800000001 158.6385334652337 0.0
468 H 29.109858000000003 158.6385334652337 0.0
469 H 4.260000000000001 9.838048586991238 0.0
470 H 17.04 9.838048586991238 0.0
471 H 29.819999999999997 9.838048586991238 0.0
472 H 4.260000000000005 83.62341298942553 0.0
473 H 17.040000000000003 83.62341298942553 0.0
474 H 29.82 83.62341298942553 0.0
475 H 4.26000000000001 157.40877739185981 0.0
476 H 17.04000000000001 157.40877739185981 0.0
477 H 29.820000000000007 157.40877739185981 0.0
478 H 5.679857999999999 9.838048586991238 0.0
479 H 18.459857999999997 9.838048586991238 0.0
480 H 31.239857999999998 9.838048586991238 0.0
481 H 5.679858000000004 83.62341298942553 0.0
482 H 18.459858 83.62341298942553 0.0
483 H 31.239858 83.62341298942553 0.0
484 H 5.679858000000008 157.40877739185981 0.0
485 H 18.459858000000008 157.40877739185981 0.0
486 H 31.23985800000001 157.40877739185981 0.0
487 H 6.39 11.067804660365141 0.0
488 H 19.169999999999998 11.067804660365141 0.0
489 H 31.949999999999996 11.067804660365141 0.0
490 H 6.390000000000004 84.85316906279942 0.0
491 H 19.17 84.85316906279942 0.0
492 H 31.95 84.85316906279942 0.0
493 H 6.390000000000009 158.6385334652337 0.0
494 H 19.17000000000001 158.6385334652337 0.0
495 H 31.950000000000006 158.6385334652337 0.0
496 H 7.809858 11.067804660365141 0.0
497 H 20.589857999999996 11.067804660365141 0.0
498 H 33.369857999999994 11.067804660365141 0.0
499 H 7.809858000000005 84.85316906279942 0.0
500 H 20.589858 84.85316906279942 0.0
501 H 33.369858 84.85316906279942 0.0
502 H 7.809858000000009 158.6385334652337 0.0
503 H 20.589858000000007 158.6385334652337 0.0
504 H 33.369858 158.6385334652337 0.0
505 H 8.52 9.838048586991238 0.0
506 H 21.299999999999994 9.838048586991238 0.0
507 H 34.08 9.838048586991238 0.0
508 H 8.520000000000005 83.62341298942553 0.0
509 H 21.299999999999997 83.62341298942553 0.0
510 H 34.080000000000005 83.62341298942553 0.0
511 H 8.520000000000008 157.40877739185981 0.0
512 H 21.300000000000004 157.40877739185981 0.0
513 H 34.080000000000005 157.40877739185981 0.0
514 H 9.939857999999997 9.838048586991238 0.0
515 H 22.719857999999995 9.838048586991238 0.0
516 H 35.49985799999999 9.838048586991238 0.0
517 H 9.939858000000003 83.62341298942553 0.0
518 H 22.719858 83.62341298942553 0.0
519 H 35.499857999999996 83.62341298942553 0.0
520 H 9.939858000000006 157.40877739185981 0.0
521 H 22.719858000000006 157.40877739185981 0.0
522 H 35.499857999999996 157.40877739185981 0.0
523 H 10.649999999999997 11.067804660365141 0.0
524 H 23.429999999999996 11.067804660365141 0.0
525 H 36.209999999999994 11.067804660365141 0.0
526 H 10.650000000000002 84.85316906279942 0.0
527 H 23.43 84.85316906279942 0.0
528 H 36.21 84.85316906279942 0.0
529 H 10.650000000000006 158.6385334652337 0.0
530 H 23.430000000000007 158.6385334652337 0.0
531 H 36.21 158.6385334652337 0.0
532 H 12.069857999999998 11.067804660365141 0.0
533 H 24.849857999999998 11.067804660365141 0.0
534 H 37.629858 11.067804660365141 0.0
535 H 12.069858000000004 84.85316906279942 0.0
536 H 24.849858 84.85316906279942 0.0
537 H 37.629858000000006 84.85316906279942 0.0
538 H 12.069858000000007 158.6385334652337 0.0
539 H 24.849858000000008 158.6385334652337 0.0
540 H 37.629858000000006 158.6385334652337 0.0
541 H 7.530084194946851e-16 12.297560733739049 0.0
542 H 12.779999999999998 12.297560733739049 0.0
543 H 25.559999999999995 12.297560733739049 0.0
544 H 5.271058936462795e-15 86.08292513617334 0.0
545 H 12.780000000000003 86.08292513617334 0.0
546 H 25.56 86.08292513617334 0.0
547 H 9.789109453430902e-15 159.86828953860757 0.0
548 H 12.780000000000008 159.86828953860757 0.0
549 H 25.560000000000006 159.86828953860757 0.0
550 H 1.4198580000000003 12.297560733739049 0.0
551 H 14.199857999999997 12.297560733739049 0.0
552 H 26.979857999999997 12.297560733739049 0.0
553 H 1.419858000000005 86.08292513617334 0.0
554 H 14.199858000000003 86.08292513617334 0.0
555 H 26.979858 86.08292513617334 0.0
556 H 1.4198580000000094 159.86828953860757 0.0
557 H 14.199858000000008 159.86828953860757 0.0
558 H 26.979858000000007 159.86828953860757 0.0
559 H 2.130000000000001 13.527316807112955 0.0
560 H 14.909999999999998 13.527316807112955 0.0
561 H 27.689999999999994 13.527316807112955 0.0
562 H 2.1300000000000052 87.31268120954724 0.0
563 H 14.910000000000004 87.31268120954724 0.0
564 H 27.69 87.31268120954724 0.0
565 H 2.1300000000000097 161.09804561198152 0.0
566 H 14.910000000000009 161.09804561198152 0.0
567 H 27.690000000000005 161.09804561198152 0.0
568 H 3.5498580000000004 13.527316807112955 0.0
569 H 16.329857999999998 13.527316807112955 0.0
570 H 29.109857999999992 13.527316807112955 0.0
571 H 3.549858000000005 87.31268120954724 0.0
572 H 16.329858000000005 87.31268120954724 0.0
573 H 29.109858 87.31268120954724 0.0
574 H 3.5498580000000093 161.09804561198152 0.0
575 H 16.32985800000001 161.09804561198152 0.0
576 H 29.109858000000003 161.09804561198152 0.0
577 H 4.260000000000001 12.297560733739049 0.0
578 H 17.04 12.297560733739049 0.0
579 H 29.819999999999997 12.297560733739049 0.0
580 H 4.260000000000005 86.08292513617334 0.0
581 H 17.040000000000003 86.08292513617334 0.0
582 H 29.82 86.08292513617334 0.0
583 H 4.26000000000001 159.86828953860757 0.0
584 H 17.04000000000001 159.86828953860757 0.0
585 H 29.820000000000007 159.86828953860757 0.0
586 H 5.679857999999999 12.297560733739049 0.0
587 H 18.459857999999997 12.297560733739049 0.0
588 H 31.239857999999998 12.297560733739049 0.0
589 H 5.679858000000004 86.08292513617334 0.0
590 H 18.459858 86.08292513617334 0.0
591 H 31.239858 86.08292513617334 0.0
592 H 5.679858000000008 159.86828953860757 0.0
593 H 18.459858000000008 159.86828953860757 0.0
594 H 31.23985800000001 159.86828953860757 0.0
595 H 6.39 13.527316807112955 0.0
596 H 19.169999999999998 13.527316807112955 0.0
597 H 31.949999999999996 13.527316807112955 0.0
598 H 6.390000000000004 87.31268120954724 0.0
599 H 19.170000000000005 87.31268120954724 0.0
600 H 31.950000000000003 87.31268120954724 0.0
601 H 6.390000000000009 161.09804561198152 0.0
602 H 19.17000000000001 161.09804561198152 0.0
603 H 31.950000000000006 161.09804561198152 0.0
604 H 7.809858 13.527316807112955 0.0
605 H 20.589857999999996 13.527316807112955 0.0
606 H 33.369857999999994 13.527316807112955 0.0
607 H 7.809858000000005 87.31268120954724 0.0
608 H 20.589858000000003 87.31268120954724 0.0
609 H 33.369858 87.31268120954724 0.0
610 H 7.809858000000009 161.09804561198152 0.0
611 H 20.589858000000007 161.09804561198152 0.0
612 H 33.369858 161.09804561198152 0.0
613 H 8.52 12.297560733739049 0.0
614 H 21.299999999999994 12.297560733739049 0.0
615 H 34.08 12.297560733739049 0.0
616 H 8.520000000000005 86.08292513617334 0.0
617 H 21.299999999999997 86.08292513617334 0.0
618 H 34.080000000000005 86.08292513617334 0.0
619 H 8.52000000000001 159.86828953860757 0.0
620 H 21.300000000000004 159.86828953860757 0.0
621 H 34.080000000000005 159.86828953860757 0.0
622 H 9.939857999999997 12.297560733739049 0.0
623 H 22.719857999999995 12.297560733739049 0.0
624 H 35.49985799999999 12.297560733739049 0.0
625 H 9.939858000000003 86.08292513617334 0.0
626 H 22.719858 86.08292513617334 0.0
627 H 35.499857999999996 86.08292513617334 0.0
628 H 9.939858000000008 159.86828953860757 0.0
629 H 22.719858000000006 159.86828953860757 0.0
630 H 35.499857999999996 159.86828953860757 0.0
631 H 10.649999999999997 13.527316807112955 0.0
632 H 23.429999999999996 13.527316807112955 0.0
633 H 36.209999999999994 13.527316807112955 0.0
634 H 10.650000000000002 87.31268120954724 0.0
635 H 23.430000000000003 87.31268120954724 0.0
636 H 36.21 87.31268120954724 0.0
637 H 10.650000000000007 161.09804561198152 0.0
638 H 23.430000000000007 161.09804561198152 0.0
639 H 36.21 161.09804561198152 0.0
640 H 12.069857999999998 13.527316807112955 0.0
641 H 24.849857999999998 13.527316807112955 0.0
642 H 37.629858 13.527316807112955 0.0
643 H 12.069858000000004 87.31268120954724 0.0
644 H 24.849858000000005 87.31268120954724 0.0
645 H 37.629858000000006 87.31268120954724 0.0
646 H 12.069858000000009 161.09804561198152 0.0
647 H 24.849858000000008 161.09804561198152 0.0
648 H 37.629858000000006 161.09804561198152 0.0
649 H 9.03610103393622e-16 14.757072880486856 0.0
650 H 12.78 14.757072880486856 0.0
651 H 25.559999999999995 14.757072880486856 0.0
652 H 5.421660620361731e-15 88.54243728292113 0.0
653 H 12.780000000000003 88.54243728292113 0.0
654 H 25.560000000000002 88.54243728292113 0.0
655 H 9.939711137329844e-15 162.32780168535547 0.0
656 H 12.780000000000008 162.32780168535547 0.0
657 H 25.560000000000006 162.32780168535547 0.0
658 H 1.4198580000000005 14.757072880486856 0.0
659 H 14.199857999999999 14.757072880486856 0.0
660 H 26.979857999999997 14.757072880486856 0.0
661 H 1.419858000000005 88.54243728292113 0.0
662 H 14.199858000000003 88.54243728292113 0.0
663 H 26.979858000000004 88.54243728292113 0.0
664 H 1.4198580000000096 162.32780168535547 0.0
665 H 14.199858000000008 162.32780168535547 0.0
666 H 26.979858000000007 162.32780168535547 0.0
667 H 2.130000000000001 15.986828953860762 0.0
668 H 14.91 15.986828953860762 0.0
669 H 27.689999999999994 15.986828953860762 0.0